 Entering Gaussian System, Link 0=/software/LNS/gaussian/g09/g09
 Initial command:
 /software/LNS/gaussian/g09/l1.exe "/home/heribert/tmp/746093/Gau-10292.inp" -scrdir="/home/heribert/tmp/746093/"
 Entering Link 1 = /software/LNS/gaussian/g09/l1.exe PID=     10293.
  
 Copyright (c) 1988,1990,1992,1993,1995,1998,2003,2009,2013,
            Gaussian, Inc.  All Rights Reserved.
  
 This is part of the Gaussian(R) 09 program.  It is based on
 the Gaussian(R) 03 system (copyright 2003, Gaussian, Inc.),
 the Gaussian(R) 98 system (copyright 1998, Gaussian, Inc.),
 the Gaussian(R) 94 system (copyright 1995, Gaussian, Inc.),
 the Gaussian 92(TM) system (copyright 1992, Gaussian, Inc.),
 the Gaussian 90(TM) system (copyright 1990, Gaussian, Inc.),
 the Gaussian 88(TM) system (copyright 1988, Gaussian, Inc.),
 the Gaussian 86(TM) system (copyright 1986, Carnegie Mellon
 University), and the Gaussian 82(TM) system (copyright 1983,
 Carnegie Mellon University). Gaussian is a federally registered
 trademark of Gaussian, Inc.
  
 This software contains proprietary and confidential information,
 including trade secrets, belonging to Gaussian, Inc.
  
 This software is provided under written license and may be
 used, copied, transmitted, or stored only in accord with that
 written license.
  
 The following legend is applicable only to US Government
 contracts under FAR:
  
                    RESTRICTED RIGHTS LEGEND
  
 Use, reproduction and disclosure by the US Government is
 subject to restrictions as set forth in subparagraphs (a)
 and (c) of the Commercial Computer Software - Restricted
 Rights clause in FAR 52.227-19.
  
 Gaussian, Inc.
 340 Quinnipiac St., Bldg. 40, Wallingford CT 06492
  
  
 ---------------------------------------------------------------
 Warning -- This program may not be used in any manner that
 competes with the business of Gaussian, Inc. or will provide
 assistance to any competitor of Gaussian, Inc.  The licensee
 of this program is prohibited from giving any competitor of
 Gaussian, Inc. access to this program.  By using this program,
 the user acknowledges that Gaussian, Inc. is engaged in the
 business of creating and licensing software in the field of
 computational chemistry and represents and warrants to the
 licensee that it is not a competitor of Gaussian, Inc. and that
 it will not use this program in any manner prohibited above.
 ---------------------------------------------------------------
  

 Cite this work as:
 Gaussian 09, Revision D.01,
 M. J. Frisch, G. W. Trucks, H. B. Schlegel, G. E. Scuseria, 
 M. A. Robb, J. R. Cheeseman, G. Scalmani, V. Barone, B. Mennucci, 
 G. A. Petersson, H. Nakatsuji, M. Caricato, X. Li, H. P. Hratchian, 
 A. F. Izmaylov, J. Bloino, G. Zheng, J. L. Sonnenberg, M. Hada, 
 M. Ehara, K. Toyota, R. Fukuda, J. Hasegawa, M. Ishida, T. Nakajima, 
 Y. Honda, O. Kitao, H. Nakai, T. Vreven, J. A. Montgomery, Jr., 
 J. E. Peralta, F. Ogliaro, M. Bearpark, J. J. Heyd, E. Brothers, 
 K. N. Kudin, V. N. Staroverov, T. Keith, R. Kobayashi, J. Normand, 
 K. Raghavachari, A. Rendell, J. C. Burant, S. S. Iyengar, J. Tomasi, 
 M. Cossi, N. Rega, J. M. Millam, M. Klene, J. E. Knox, J. B. Cross, 
 V. Bakken, C. Adamo, J. Jaramillo, R. Gomperts, R. E. Stratmann, 
 O. Yazyev, A. J. Austin, R. Cammi, C. Pomelli, J. W. Ochterski, 
 R. L. Martin, K. Morokuma, V. G. Zakrzewski, G. A. Voth, 
 P. Salvador, J. J. Dannenberg, S. Dapprich, A. D. Daniels, 
 O. Farkas, J. B. Foresman, J. V. Ortiz, J. Cioslowski, 
 and D. J. Fox, Gaussian, Inc., Wallingford CT, 2013.
 
 ******************************************
 Gaussian 09:  ES64L-G09RevD.01 24-Apr-2013
                15-Nov-2024 
 ******************************************
 %NProcShared=150
 Will use up to  150 processors via shared memory.
 %mem=64GB
 %chk=LI-7-A.chk
 ----------------------------------------------------
 #p opt b3lyp/6-311g(d,p) scrf=(cpcm,solvent=ethanol)
 ----------------------------------------------------
 1/14=-1,18=20,19=15,26=3,38=1/1,3;
 2/9=110,12=2,17=6,18=5,40=1/2;
 3/5=4,6=6,7=101,11=2,16=1,25=1,30=1,70=2101,71=1,72=4,74=-5/1,2,3;
 4//1;
 5/5=2,38=5,53=4/2;
 6/7=2,8=2,9=2,10=2,28=1/1;
 7//1,2,3,16;
 1/14=-1,18=20,19=15,26=3/3(2);
 2/9=110/2;
 99//99;
 2/9=110/2;
 3/5=4,6=6,7=101,11=2,16=1,25=1,30=1,70=2105,71=1,72=4,74=-5/1,2,3;
 4/5=5,16=3,69=1/1;
 5/5=2,38=5,53=4/2;
 7//1,2,3,16;
 1/14=-1,18=20,19=15,26=3/3(-5);
 2/9=110/2;
 6/7=2,8=2,9=2,10=2,19=2,28=1/1;
 99/9=1/99;
 Leave Link    1 at Fri Nov 15 11:04:51 2024, MaxMem=  8589934592 cpu:        10.5
 (Enter /software/LNS/gaussian/g09/l101.exe)
 -------------------
 Title Card Required
 -------------------
 Symbolic Z-matrix:
 Charge =  0 Multiplicity = 1
 C                    -0.68425  -1.83726   1.19407 
 H                    -1.42406  -2.60604   0.97918 
 C                     0.68426  -1.83723   1.19409 
 H                     1.4241   -2.60599   0.97923 
 C                    -0.00005   0.26069   1.62131 
 H                    -0.00009   1.33604   1.70677 
 C                     2.4498    0.05183   1.34421 
 H                     3.20067  -0.72835   1.4909 
 H                     2.55779   0.84581   2.08493 
 H                     1.69908   1.20477  -0.34918 
 C                    -2.44988   0.05171   1.34407 
 H                    -2.55796   0.84566   2.08483 
 H                    -3.20073  -0.72851   1.49067 
 H                    -1.69914   1.20478  -0.34923 
 O                     4.84734  -1.75586   0.61514 
 O                    -4.84735  -1.75585   0.61504 
 S                     4.02956  -2.73848  -0.38448 
 S                    -4.02954  -2.73847  -0.38454 
 O                     2.97254  -3.66424   0.40129 
 O                     3.40899  -1.96688  -1.65109 
 O                    -3.40898  -1.96686  -1.65115 
 O                    -2.97249  -3.6642    0.40123 
 N                     1.08639  -0.51583   1.46489 
 N                    -1.08646  -0.51588   1.46483 
 Cl                    0.00017   3.20642  -0.10945 
 C                     2.58103   0.61124  -0.09544 
 H                     2.74602  -0.21697  -0.7951 
 C                    -2.58108   0.61122  -0.09555 
 H                    -2.74606  -0.21691  -0.79531 
 N                     3.74223   1.52513  -0.1706 
 C                     5.08894   1.14492  -0.1223 
 C                     3.64907   2.86395  -0.28783 
 C                     5.81436   2.29697  -0.22097 
 H                     5.34506   0.10021   0.00709 
 H                     2.71606   3.40696  -0.33254 
 H                     6.87556   2.46144  -0.22535 
 N                    -3.74228   1.52512  -0.17064 
 C                    -5.08899   1.14491  -0.12236 
 C                    -3.6491    2.86394  -0.28782 
 C                    -5.8144    2.29697  -0.22096 
 H                    -5.34513   0.1002    0.007 
 H                    -2.71609   3.40695  -0.33252 
 H                    -6.8756    2.46145  -0.22533 
 N                     4.90117   3.35753  -0.32549 
 N                    -4.9012    3.35753  -0.32544 
 C                    -5.32117  -3.9064   -1.0604 
 H                    -6.06167  -3.30069  -1.57965 
 H                    -4.82243  -4.59497  -1.73991 
 H                    -5.75862  -4.42954  -0.21222 
 C                     5.3212   -3.90638  -1.06037 
 H                     4.82244  -4.59495  -1.73987 
 H                     6.06168  -3.30067  -1.57964 
 H                     5.75868  -4.42953  -0.21221 
 C                     5.26032   4.79044  -0.45346 
 H                     4.34323   5.37201  -0.54373 
 H                     5.8119    5.10331   0.43417 
 H                     5.8744    4.92715  -1.3445 
 C                    -5.26038   4.79045  -0.45311 
 H                    -5.81048   5.10361   0.43534 
 H                    -4.34339   5.3719   -0.54506 
 H                    -5.87589   4.92702  -1.34319 
 
 Add virtual bond connecting atoms O16        and H41        Dist= 3.81D+00.
 Add virtual bond connecting atoms O21        and H29        Dist= 3.89D+00.
 Add virtual bond connecting atoms O22        and H2         Dist= 3.71D+00.
 Add virtual bond connecting atoms O15        and H34        Dist= 3.81D+00.
 Add virtual bond connecting atoms O19        and H4         Dist= 3.71D+00.
 Add virtual bond connecting atoms O20        and H27        Dist= 3.89D+00.
 Add virtual bond connecting atoms Cl25       and H6         Dist= 4.93D+00.
 Add virtual bond connecting atoms Cl25       and H10        Dist= 4.98D+00.
 Add virtual bond connecting atoms Cl25       and H14        Dist= 4.98D+00.
 Add virtual bond connecting atoms Cl25       and H35        Dist= 5.16D+00.
 Add virtual bond connecting atoms Cl25       and H42        Dist= 5.16D+00.
 NAtoms=     61 NQM=       61 NQMF=       0 NMMI=      0 NMMIF=      0
                NMic=       0 NMicF=      0.
                    Isotopes and Nuclear Properties:
 (Nuclear quadrupole moments (NQMom) in fm**2, nuclear magnetic moments (NMagM)
  in nuclear magnetons)

  Atom         1           2           3           4           5           6           7           8           9          10
 IAtWgt=          12           1          12           1          12           1          12           1           1           1
 AtmWgt=  12.0000000   1.0078250  12.0000000   1.0078250  12.0000000   1.0078250  12.0000000   1.0078250   1.0078250   1.0078250
 NucSpn=           0           1           0           1           0           1           0           1           1           1
 AtZEff=   0.0000000   0.0000000   0.0000000   0.0000000   0.0000000   0.0000000   0.0000000   0.0000000   0.0000000   0.0000000
 NQMom=    0.0000000   0.0000000   0.0000000   0.0000000   0.0000000   0.0000000   0.0000000   0.0000000   0.0000000   0.0000000
 NMagM=    0.0000000   2.7928460   0.0000000   2.7928460   0.0000000   2.7928460   0.0000000   2.7928460   2.7928460   2.7928460
 AtZNuc=   6.0000000   1.0000000   6.0000000   1.0000000   6.0000000   1.0000000   6.0000000   1.0000000   1.0000000   1.0000000

  Atom        11          12          13          14          15          16          17          18          19          20
 IAtWgt=          12           1           1           1          16          16          32          32          16          16
 AtmWgt=  12.0000000   1.0078250   1.0078250   1.0078250  15.9949146  15.9949146  31.9720718  31.9720718  15.9949146  15.9949146
 NucSpn=           0           1           1           1           0           0           0           0           0           0
 AtZEff=   0.0000000   0.0000000   0.0000000   0.0000000   0.0000000   0.0000000   0.0000000   0.0000000   0.0000000   0.0000000
 NQMom=    0.0000000   0.0000000   0.0000000   0.0000000   0.0000000   0.0000000   0.0000000   0.0000000   0.0000000   0.0000000
 NMagM=    0.0000000   2.7928460   2.7928460   2.7928460   0.0000000   0.0000000   0.0000000   0.0000000   0.0000000   0.0000000
 AtZNuc=   6.0000000   1.0000000   1.0000000   1.0000000   8.0000000   8.0000000  16.0000000  16.0000000   8.0000000   8.0000000

  Atom        21          22          23          24          25          26          27          28          29          30
 IAtWgt=          16          16          14          14          35          12           1          12           1          14
 AtmWgt=  15.9949146  15.9949146  14.0030740  14.0030740  34.9688527  12.0000000   1.0078250  12.0000000   1.0078250  14.0030740
 NucSpn=           0           0           2           2           3           0           1           0           1           2
 AtZEff=   0.0000000   0.0000000   0.0000000   0.0000000   0.0000000   0.0000000   0.0000000   0.0000000   0.0000000   0.0000000
 NQMom=    0.0000000   0.0000000   2.0440000   2.0440000  -8.1650000   0.0000000   0.0000000   0.0000000   0.0000000   2.0440000
 NMagM=    0.0000000   0.0000000   0.4037610   0.4037610   0.8218740   0.0000000   2.7928460   0.0000000   2.7928460   0.4037610
 AtZNuc=   8.0000000   8.0000000   7.0000000   7.0000000  17.0000000   6.0000000   1.0000000   6.0000000   1.0000000   7.0000000

  Atom        31          32          33          34          35          36          37          38          39          40
 IAtWgt=          12          12          12           1           1           1          14          12          12          12
 AtmWgt=  12.0000000  12.0000000  12.0000000   1.0078250   1.0078250   1.0078250  14.0030740  12.0000000  12.0000000  12.0000000
 NucSpn=           0           0           0           1           1           1           2           0           0           0
 AtZEff=   0.0000000   0.0000000   0.0000000   0.0000000   0.0000000   0.0000000   0.0000000   0.0000000   0.0000000   0.0000000
 NQMom=    0.0000000   0.0000000   0.0000000   0.0000000   0.0000000   0.0000000   2.0440000   0.0000000   0.0000000   0.0000000
 NMagM=    0.0000000   0.0000000   0.0000000   2.7928460   2.7928460   2.7928460   0.4037610   0.0000000   0.0000000   0.0000000
 AtZNuc=   6.0000000   6.0000000   6.0000000   1.0000000   1.0000000   1.0000000   7.0000000   6.0000000   6.0000000   6.0000000

  Atom        41          42          43          44          45          46          47          48          49          50
 IAtWgt=           1           1           1          14          14          12           1           1           1          12
 AtmWgt=   1.0078250   1.0078250   1.0078250  14.0030740  14.0030740  12.0000000   1.0078250   1.0078250   1.0078250  12.0000000
 NucSpn=           1           1           1           2           2           0           1           1           1           0
 AtZEff=   0.0000000   0.0000000   0.0000000   0.0000000   0.0000000   0.0000000   0.0000000   0.0000000   0.0000000   0.0000000
 NQMom=    0.0000000   0.0000000   0.0000000   2.0440000   2.0440000   0.0000000   0.0000000   0.0000000   0.0000000   0.0000000
 NMagM=    2.7928460   2.7928460   2.7928460   0.4037610   0.4037610   0.0000000   2.7928460   2.7928460   2.7928460   0.0000000
 AtZNuc=   1.0000000   1.0000000   1.0000000   7.0000000   7.0000000   6.0000000   1.0000000   1.0000000   1.0000000   6.0000000

  Atom        51          52          53          54          55          56          57          58          59          60
 IAtWgt=           1           1           1          12           1           1           1          12           1           1
 AtmWgt=   1.0078250   1.0078250   1.0078250  12.0000000   1.0078250   1.0078250   1.0078250  12.0000000   1.0078250   1.0078250
 NucSpn=           1           1           1           0           1           1           1           0           1           1
 AtZEff=   0.0000000   0.0000000   0.0000000   0.0000000   0.0000000   0.0000000   0.0000000   0.0000000   0.0000000   0.0000000
 NQMom=    0.0000000   0.0000000   0.0000000   0.0000000   0.0000000   0.0000000   0.0000000   0.0000000   0.0000000   0.0000000
 NMagM=    2.7928460   2.7928460   2.7928460   0.0000000   2.7928460   2.7928460   2.7928460   0.0000000   2.7928460   2.7928460
 AtZNuc=   1.0000000   1.0000000   1.0000000   6.0000000   1.0000000   1.0000000   1.0000000   6.0000000   1.0000000   1.0000000

  Atom        61
 IAtWgt=           1
 AtmWgt=   1.0078250
 NucSpn=           1
 AtZEff=   0.0000000
 NQMom=    0.0000000
 NMagM=    2.7928460
 AtZNuc=   1.0000000
 Leave Link  101 at Fri Nov 15 11:04:54 2024, MaxMem=  8589934592 cpu:        48.6
 (Enter /software/LNS/gaussian/g09/l103.exe)

 GradGradGradGradGradGradGradGradGradGradGradGradGradGradGradGradGradGrad
 Berny optimization.
 Initialization pass.
                           ----------------------------
                           !    Initial Parameters    !
                           ! (Angstroms and Degrees)  !
 --------------------------                            --------------------------
 ! Name  Definition              Value          Derivative Info.                !
 --------------------------------------------------------------------------------
 ! R1    R(1,2)                  1.0884         estimate D2E/DX2                !
 ! R2    R(1,3)                  1.3685         estimate D2E/DX2                !
 ! R3    R(1,24)                 1.4075         estimate D2E/DX2                !
 ! R4    R(2,22)                 1.9625         estimate D2E/DX2                !
 ! R5    R(3,4)                  1.0884         estimate D2E/DX2                !
 ! R6    R(3,23)                 1.4075         estimate D2E/DX2                !
 ! R7    R(4,19)                 1.9625         estimate D2E/DX2                !
 ! R8    R(5,6)                  1.0787         estimate D2E/DX2                !
 ! R9    R(5,23)                 1.3445         estimate D2E/DX2                !
 ! R10   R(5,24)                 1.3445         estimate D2E/DX2                !
 ! R11   R(6,25)                 2.6071         estimate D2E/DX2                !
 ! R12   R(7,8)                  1.0927         estimate D2E/DX2                !
 ! R13   R(7,9)                  1.0912         estimate D2E/DX2                !
 ! R14   R(7,23)                 1.4818         estimate D2E/DX2                !
 ! R15   R(7,26)                 1.5501         estimate D2E/DX2                !
 ! R16   R(10,25)                2.6364         estimate D2E/DX2                !
 ! R17   R(10,26)                1.0929         estimate D2E/DX2                !
 ! R18   R(11,12)                1.0912         estimate D2E/DX2                !
 ! R19   R(11,13)                1.0927         estimate D2E/DX2                !
 ! R20   R(11,24)                1.4818         estimate D2E/DX2                !
 ! R21   R(11,28)                1.5501         estimate D2E/DX2                !
 ! R22   R(14,25)                2.6366         estimate D2E/DX2                !
 ! R23   R(14,28)                1.0929         estimate D2E/DX2                !
 ! R24   R(15,17)                1.6228         estimate D2E/DX2                !
 ! R25   R(15,34)                2.0156         estimate D2E/DX2                !
 ! R26   R(16,18)                1.6228         estimate D2E/DX2                !
 ! R27   R(16,41)                2.0155         estimate D2E/DX2                !
 ! R28   R(17,19)                1.6099         estimate D2E/DX2                !
 ! R29   R(17,20)                1.6077         estimate D2E/DX2                !
 ! R30   R(17,50)                1.8679         estimate D2E/DX2                !
 ! R31   R(18,21)                1.6077         estimate D2E/DX2                !
 ! R32   R(18,22)                1.6099         estimate D2E/DX2                !
 ! R33   R(18,46)                1.8679         estimate D2E/DX2                !
 ! R34   R(20,27)                2.0578         estimate D2E/DX2                !
 ! R35   R(21,29)                2.0577         estimate D2E/DX2                !
 ! R36   R(25,35)                2.7324         estimate D2E/DX2                !
 ! R37   R(25,42)                2.7328         estimate D2E/DX2                !
 ! R38   R(26,27)                1.0967         estimate D2E/DX2                !
 ! R39   R(26,30)                1.4796         estimate D2E/DX2                !
 ! R40   R(28,29)                1.0967         estimate D2E/DX2                !
 ! R41   R(28,37)                1.4796         estimate D2E/DX2                !
 ! R42   R(30,31)                1.4002         estimate D2E/DX2                !
 ! R43   R(30,32)                1.3472         estimate D2E/DX2                !
 ! R44   R(31,33)                1.365          estimate D2E/DX2                !
 ! R45   R(31,34)                1.0834         estimate D2E/DX2                !
 ! R46   R(32,35)                1.0804         estimate D2E/DX2                !
 ! R47   R(32,44)                1.3464         estimate D2E/DX2                !
 ! R48   R(33,36)                1.0739         estimate D2E/DX2                !
 ! R49   R(33,44)                1.4034         estimate D2E/DX2                !
 ! R50   R(37,38)                1.4002         estimate D2E/DX2                !
 ! R51   R(37,39)                1.3472         estimate D2E/DX2                !
 ! R52   R(38,40)                1.365          estimate D2E/DX2                !
 ! R53   R(38,41)                1.0834         estimate D2E/DX2                !
 ! R54   R(39,42)                1.0804         estimate D2E/DX2                !
 ! R55   R(39,45)                1.3464         estimate D2E/DX2                !
 ! R56   R(40,43)                1.0739         estimate D2E/DX2                !
 ! R57   R(40,45)                1.4034         estimate D2E/DX2                !
 ! R58   R(44,54)                1.4828         estimate D2E/DX2                !
 ! R59   R(45,58)                1.4828         estimate D2E/DX2                !
 ! R60   R(46,47)                1.0885         estimate D2E/DX2                !
 ! R61   R(46,48)                1.0884         estimate D2E/DX2                !
 ! R62   R(46,49)                1.0883         estimate D2E/DX2                !
 ! R63   R(50,51)                1.0884         estimate D2E/DX2                !
 ! R64   R(50,52)                1.0885         estimate D2E/DX2                !
 ! R65   R(50,53)                1.0883         estimate D2E/DX2                !
 ! R66   R(54,55)                1.0897         estimate D2E/DX2                !
 ! R67   R(54,56)                1.0909         estimate D2E/DX2                !
 ! R68   R(54,57)                1.0908         estimate D2E/DX2                !
 ! R69   R(58,59)                1.0909         estimate D2E/DX2                !
 ! R70   R(58,60)                1.0897         estimate D2E/DX2                !
 ! R71   R(58,61)                1.0907         estimate D2E/DX2                !
 ! A1    A(2,1,3)              132.8256         estimate D2E/DX2                !
 ! A2    A(2,1,24)             120.456          estimate D2E/DX2                !
 ! A3    A(3,1,24)             106.6025         estimate D2E/DX2                !
 ! A4    A(1,3,4)              132.8246         estimate D2E/DX2                !
 ! A5    A(1,3,23)             106.6021         estimate D2E/DX2                !
 ! A6    A(4,3,23)             120.4575         estimate D2E/DX2                !
 ! A7    A(6,5,23)             125.7999         estimate D2E/DX2                !
 ! A8    A(6,5,24)             125.7993         estimate D2E/DX2                !
 ! A9    A(23,5,24)            107.806          estimate D2E/DX2                !
 ! A10   A(5,6,25)             131.2981         estimate D2E/DX2                !
 ! A11   A(8,7,9)              111.1234         estimate D2E/DX2                !
 ! A12   A(8,7,23)             110.354          estimate D2E/DX2                !
 ! A13   A(8,7,26)             108.9153         estimate D2E/DX2                !
 ! A14   A(9,7,23)             108.3317         estimate D2E/DX2                !
 ! A15   A(9,7,26)             111.0684         estimate D2E/DX2                !
 ! A16   A(23,7,26)            106.9653         estimate D2E/DX2                !
 ! A17   A(25,10,26)           155.6753         estimate D2E/DX2                !
 ! A18   A(12,11,13)           111.1236         estimate D2E/DX2                !
 ! A19   A(12,11,24)           108.3308         estimate D2E/DX2                !
 ! A20   A(12,11,28)           111.0672         estimate D2E/DX2                !
 ! A21   A(13,11,24)           110.3541         estimate D2E/DX2                !
 ! A22   A(13,11,28)           108.9151         estimate D2E/DX2                !
 ! A23   A(24,11,28)           106.9674         estimate D2E/DX2                !
 ! A24   A(25,14,28)           155.6832         estimate D2E/DX2                !
 ! A25   A(17,15,34)           119.7495         estimate D2E/DX2                !
 ! A26   A(18,16,41)           119.7509         estimate D2E/DX2                !
 ! A27   A(15,17,19)           112.2352         estimate D2E/DX2                !
 ! A28   A(15,17,20)           112.9044         estimate D2E/DX2                !
 ! A29   A(15,17,50)           104.6558         estimate D2E/DX2                !
 ! A30   A(19,17,20)           114.0214         estimate D2E/DX2                !
 ! A31   A(19,17,50)           105.7287         estimate D2E/DX2                !
 ! A32   A(20,17,50)           106.3742         estimate D2E/DX2                !
 ! A33   A(16,18,21)           112.9035         estimate D2E/DX2                !
 ! A34   A(16,18,22)           112.2363         estimate D2E/DX2                !
 ! A35   A(16,18,46)           104.6545         estimate D2E/DX2                !
 ! A36   A(21,18,22)           114.021          estimate D2E/DX2                !
 ! A37   A(21,18,46)           106.3756         estimate D2E/DX2                !
 ! A38   A(22,18,46)           105.7288         estimate D2E/DX2                !
 ! A39   A(4,19,17)            110.5913         estimate D2E/DX2                !
 ! A40   A(17,20,27)           101.8159         estimate D2E/DX2                !
 ! A41   A(18,21,29)           101.8197         estimate D2E/DX2                !
 ! A42   A(2,22,18)            110.5949         estimate D2E/DX2                !
 ! A43   A(3,23,5)             109.4947         estimate D2E/DX2                !
 ! A44   A(3,23,7)             127.3625         estimate D2E/DX2                !
 ! A45   A(5,23,7)             122.1212         estimate D2E/DX2                !
 ! A46   A(1,24,5)             109.4943         estimate D2E/DX2                !
 ! A47   A(1,24,11)            127.3627         estimate D2E/DX2                !
 ! A48   A(5,24,11)            122.1213         estimate D2E/DX2                !
 ! A49   A(6,25,10)             61.2304         estimate D2E/DX2                !
 ! A50   A(6,25,14)             61.2261         estimate D2E/DX2                !
 ! A51   A(6,25,35)             96.2939         estimate D2E/DX2                !
 ! A52   A(6,25,42)             96.2813         estimate D2E/DX2                !
 ! A53   A(10,25,14)            80.2505         estimate D2E/DX2                !
 ! A54   A(10,25,35)            53.6852         estimate D2E/DX2                !
 ! A55   A(10,25,42)           133.5362         estimate D2E/DX2                !
 ! A56   A(14,25,35)           133.5433         estimate D2E/DX2                !
 ! A57   A(14,25,42)            53.6776         estimate D2E/DX2                !
 ! A58   A(7,26,10)            110.0777         estimate D2E/DX2                !
 ! A59   A(7,26,27)            109.4347         estimate D2E/DX2                !
 ! A60   A(7,26,30)            109.6654         estimate D2E/DX2                !
 ! A61   A(10,26,27)           112.5451         estimate D2E/DX2                !
 ! A62   A(10,26,30)           106.6234         estimate D2E/DX2                !
 ! A63   A(27,26,30)           108.4198         estimate D2E/DX2                !
 ! A64   A(20,27,26)           162.9558         estimate D2E/DX2                !
 ! A65   A(11,28,14)           110.0779         estimate D2E/DX2                !
 ! A66   A(11,28,29)           109.4374         estimate D2E/DX2                !
 ! A67   A(11,28,37)           109.6639         estimate D2E/DX2                !
 ! A68   A(14,28,29)           112.5449         estimate D2E/DX2                !
 ! A69   A(14,28,37)           106.6226         estimate D2E/DX2                !
 ! A70   A(29,28,37)           108.4193         estimate D2E/DX2                !
 ! A71   A(21,29,28)           162.9476         estimate D2E/DX2                !
 ! A72   A(26,30,31)           125.8281         estimate D2E/DX2                !
 ! A73   A(26,30,32)           124.3317         estimate D2E/DX2                !
 ! A74   A(31,30,32)           109.8387         estimate D2E/DX2                !
 ! A75   A(30,31,33)           106.2291         estimate D2E/DX2                !
 ! A76   A(30,31,34)           119.5604         estimate D2E/DX2                !
 ! A77   A(33,31,34)           134.175          estimate D2E/DX2                !
 ! A78   A(30,32,35)           124.2485         estimate D2E/DX2                !
 ! A79   A(30,32,44)           107.6045         estimate D2E/DX2                !
 ! A80   A(35,32,44)           128.1454         estimate D2E/DX2                !
 ! A81   A(31,33,36)           130.8996         estimate D2E/DX2                !
 ! A82   A(31,33,44)           107.3003         estimate D2E/DX2                !
 ! A83   A(36,33,44)           121.8001         estimate D2E/DX2                !
 ! A84   A(15,34,31)           149.9559         estimate D2E/DX2                !
 ! A85   A(25,35,32)           144.8905         estimate D2E/DX2                !
 ! A86   A(28,37,38)           125.8285         estimate D2E/DX2                !
 ! A87   A(28,37,39)           124.331          estimate D2E/DX2                !
 ! A88   A(38,37,39)           109.839          estimate D2E/DX2                !
 ! A89   A(37,38,40)           106.2288         estimate D2E/DX2                !
 ! A90   A(37,38,41)           119.5609         estimate D2E/DX2                !
 ! A91   A(40,38,41)           134.1748         estimate D2E/DX2                !
 ! A92   A(37,39,42)           124.2485         estimate D2E/DX2                !
 ! A93   A(37,39,45)           107.6043         estimate D2E/DX2                !
 ! A94   A(42,39,45)           128.1456         estimate D2E/DX2                !
 ! A95   A(38,40,43)           130.8995         estimate D2E/DX2                !
 ! A96   A(38,40,45)           107.3005         estimate D2E/DX2                !
 ! A97   A(43,40,45)           121.7999         estimate D2E/DX2                !
 ! A98   A(16,41,38)           149.9529         estimate D2E/DX2                !
 ! A99   A(25,42,39)           144.8924         estimate D2E/DX2                !
 ! A100  A(32,44,33)           109.0259         estimate D2E/DX2                !
 ! A101  A(32,44,54)           125.5862         estimate D2E/DX2                !
 ! A102  A(33,44,54)           125.3877         estimate D2E/DX2                !
 ! A103  A(39,45,40)           109.026          estimate D2E/DX2                !
 ! A104  A(39,45,58)           125.588          estimate D2E/DX2                !
 ! A105  A(40,45,58)           125.3859         estimate D2E/DX2                !
 ! A106  A(18,46,47)           107.1627         estimate D2E/DX2                !
 ! A107  A(18,46,48)           107.7341         estimate D2E/DX2                !
 ! A108  A(18,46,49)           107.2479         estimate D2E/DX2                !
 ! A109  A(47,46,48)           111.466          estimate D2E/DX2                !
 ! A110  A(47,46,49)           111.4571         estimate D2E/DX2                !
 ! A111  A(48,46,49)           111.5091         estimate D2E/DX2                !
 ! A112  A(17,50,51)           107.7332         estimate D2E/DX2                !
 ! A113  A(17,50,52)           107.1627         estimate D2E/DX2                !
 ! A114  A(17,50,53)           107.2488         estimate D2E/DX2                !
 ! A115  A(51,50,52)           111.4658         estimate D2E/DX2                !
 ! A116  A(51,50,53)           111.5091         estimate D2E/DX2                !
 ! A117  A(52,50,53)           111.4572         estimate D2E/DX2                !
 ! A118  A(44,54,55)           108.6063         estimate D2E/DX2                !
 ! A119  A(44,54,56)           109.2331         estimate D2E/DX2                !
 ! A120  A(44,54,57)           109.1467         estimate D2E/DX2                !
 ! A121  A(55,54,56)           109.8696         estimate D2E/DX2                !
 ! A122  A(55,54,57)           109.8306         estimate D2E/DX2                !
 ! A123  A(56,54,57)           110.1262         estimate D2E/DX2                !
 ! A124  A(45,58,59)           109.235          estimate D2E/DX2                !
 ! A125  A(45,58,60)           108.6073         estimate D2E/DX2                !
 ! A126  A(45,58,61)           109.1444         estimate D2E/DX2                !
 ! A127  A(59,58,60)           109.8707         estimate D2E/DX2                !
 ! A128  A(59,58,61)           110.1262         estimate D2E/DX2                !
 ! A129  A(60,58,61)           109.829          estimate D2E/DX2                !
 ! A130  L(1,2,22,13,-1)       170.0204         estimate D2E/DX2                !
 ! A131  L(3,4,19,8,-1)        170.0247         estimate D2E/DX2                !
 ! A132  L(35,25,42,6,-1)      192.5752         estimate D2E/DX2                !
 ! A133  L(1,2,22,13,-2)       172.056          estimate D2E/DX2                !
 ! A134  L(3,4,19,8,-2)        187.9445         estimate D2E/DX2                !
 ! A135  L(35,25,42,6,-2)      180.8582         estimate D2E/DX2                !
 ! D1    D(3,1,22,18)         -135.2417         estimate D2E/DX2                !
 ! D2    D(24,1,22,18)          32.3283         estimate D2E/DX2                !
 ! D3    D(2,1,3,4)             -0.0008         estimate D2E/DX2                !
 ! D4    D(2,1,3,23)           175.9648         estimate D2E/DX2                !
 ! D5    D(24,1,3,4)          -175.9647         estimate D2E/DX2                !
 ! D6    D(24,1,3,23)            0.0009         estimate D2E/DX2                !
 ! D7    D(2,1,24,5)          -176.4488         estimate D2E/DX2                !
 ! D8    D(2,1,24,11)           -7.939          estimate D2E/DX2                !
 ! D9    D(3,1,24,5)             0.1179         estimate D2E/DX2                !
 ! D10   D(3,1,24,11)          168.6278         estimate D2E/DX2                !
 ! D11   D(1,3,19,17)          135.242          estimate D2E/DX2                !
 ! D12   D(23,3,19,17)         -32.3299         estimate D2E/DX2                !
 ! D13   D(1,3,23,5)            -0.1194         estimate D2E/DX2                !
 ! D14   D(1,3,23,7)          -168.6293         estimate D2E/DX2                !
 ! D15   D(4,3,23,5)           176.4487         estimate D2E/DX2                !
 ! D16   D(4,3,23,7)             7.9388         estimate D2E/DX2                !
 ! D17   D(23,5,6,25)           85.0244         estimate D2E/DX2                !
 ! D18   D(24,5,6,25)          -85.0395         estimate D2E/DX2                !
 ! D19   D(6,5,23,3)          -171.3541         estimate D2E/DX2                !
 ! D20   D(6,5,23,7)            -2.1285         estimate D2E/DX2                !
 ! D21   D(24,5,23,3)            0.1933         estimate D2E/DX2                !
 ! D22   D(24,5,23,7)          169.419          estimate D2E/DX2                !
 ! D23   D(6,5,24,1)           171.3547         estimate D2E/DX2                !
 ! D24   D(6,5,24,11)            2.1291         estimate D2E/DX2                !
 ! D25   D(23,5,24,1)           -0.1928         estimate D2E/DX2                !
 ! D26   D(23,5,24,11)        -169.4184         estimate D2E/DX2                !
 ! D27   D(5,6,25,10)          -47.3184         estimate D2E/DX2                !
 ! D28   D(5,6,25,14)           47.3348         estimate D2E/DX2                !
 ! D29   D(5,6,25,35)          -89.5637         estimate D2E/DX2                !
 ! D30   D(5,6,25,42)           89.5782         estimate D2E/DX2                !
 ! D31   D(8,7,23,3)           -27.7924         estimate D2E/DX2                !
 ! D32   D(8,7,23,5)           165.0176         estimate D2E/DX2                !
 ! D33   D(9,7,23,3)          -149.6524         estimate D2E/DX2                !
 ! D34   D(9,7,23,5)            43.1576         estimate D2E/DX2                !
 ! D35   D(26,7,23,3)           90.5452         estimate D2E/DX2                !
 ! D36   D(26,7,23,5)          -76.6448         estimate D2E/DX2                !
 ! D37   D(8,7,26,10)          166.0058         estimate D2E/DX2                !
 ! D38   D(8,7,26,27)           41.8221         estimate D2E/DX2                !
 ! D39   D(8,7,26,30)          -76.9886         estimate D2E/DX2                !
 ! D40   D(9,7,26,10)          -71.2936         estimate D2E/DX2                !
 ! D41   D(9,7,26,27)          164.5227         estimate D2E/DX2                !
 ! D42   D(9,7,26,30)           45.7121         estimate D2E/DX2                !
 ! D43   D(23,7,26,10)          46.7347         estimate D2E/DX2                !
 ! D44   D(23,7,26,27)         -77.449          estimate D2E/DX2                !
 ! D45   D(23,7,26,30)         163.7404         estimate D2E/DX2                !
 ! D46   D(26,10,25,6)         -71.812          estimate D2E/DX2                !
 ! D47   D(26,10,25,14)       -134.2412         estimate D2E/DX2                !
 ! D48   D(26,10,25,35)         52.158          estimate D2E/DX2                !
 ! D49   D(26,10,25,42)       -141.3537         estimate D2E/DX2                !
 ! D50   D(25,10,26,7)          62.6356         estimate D2E/DX2                !
 ! D51   D(25,10,26,27)       -174.9994         estimate D2E/DX2                !
 ! D52   D(25,10,26,30)        -56.2495         estimate D2E/DX2                !
 ! D53   D(12,11,24,1)         149.6491         estimate D2E/DX2                !
 ! D54   D(12,11,24,5)         -43.161          estimate D2E/DX2                !
 ! D55   D(13,11,24,1)          27.7894         estimate D2E/DX2                !
 ! D56   D(13,11,24,5)        -165.0207         estimate D2E/DX2                !
 ! D57   D(28,11,24,1)         -90.5492         estimate D2E/DX2                !
 ! D58   D(28,11,24,5)          76.6407         estimate D2E/DX2                !
 ! D59   D(12,11,28,14)         71.2954         estimate D2E/DX2                !
 ! D60   D(12,11,28,29)       -164.5192         estimate D2E/DX2                !
 ! D61   D(12,11,28,37)        -45.7085         estimate D2E/DX2                !
 ! D62   D(13,11,28,14)       -166.0047         estimate D2E/DX2                !
 ! D63   D(13,11,28,29)        -41.8192         estimate D2E/DX2                !
 ! D64   D(13,11,28,37)         76.9915         estimate D2E/DX2                !
 ! D65   D(24,11,28,14)        -46.7324         estimate D2E/DX2                !
 ! D66   D(24,11,28,29)         77.453          estimate D2E/DX2                !
 ! D67   D(24,11,28,37)       -163.7362         estimate D2E/DX2                !
 ! D68   D(28,14,25,6)          71.7969         estimate D2E/DX2                !
 ! D69   D(28,14,25,10)        134.2306         estimate D2E/DX2                !
 ! D70   D(28,14,25,35)        141.3477         estimate D2E/DX2                !
 ! D71   D(28,14,25,42)        -52.1659         estimate D2E/DX2                !
 ! D72   D(25,14,28,11)        -62.6264         estimate D2E/DX2                !
 ! D73   D(25,14,28,29)        175.0051         estimate D2E/DX2                !
 ! D74   D(25,14,28,37)         56.2566         estimate D2E/DX2                !
 ! D75   D(34,15,17,19)       -144.1206         estimate D2E/DX2                !
 ! D76   D(34,15,17,20)        -13.5679         estimate D2E/DX2                !
 ! D77   D(34,15,17,50)        101.6984         estimate D2E/DX2                !
 ! D78   D(17,15,34,31)         84.9373         estimate D2E/DX2                !
 ! D79   D(41,16,18,21)         13.5681         estimate D2E/DX2                !
 ! D80   D(41,16,18,22)        144.1205         estimate D2E/DX2                !
 ! D81   D(41,16,18,46)       -101.6986         estimate D2E/DX2                !
 ! D82   D(18,16,41,38)        -84.9384         estimate D2E/DX2                !
 ! D83   D(15,17,19,4)          73.6872         estimate D2E/DX2                !
 ! D84   D(20,17,19,4)         -56.2931         estimate D2E/DX2                !
 ! D85   D(50,17,19,4)        -172.7907         estimate D2E/DX2                !
 ! D86   D(15,17,20,27)        -40.2178         estimate D2E/DX2                !
 ! D87   D(19,17,20,27)         89.4288         estimate D2E/DX2                !
 ! D88   D(50,17,20,27)       -154.4492         estimate D2E/DX2                !
 ! D89   D(15,17,50,51)        179.8259         estimate D2E/DX2                !
 ! D90   D(15,17,50,52)        -60.1167         estimate D2E/DX2                !
 ! D91   D(15,17,50,53)         59.6701         estimate D2E/DX2                !
 ! D92   D(19,17,50,51)         61.1404         estimate D2E/DX2                !
 ! D93   D(19,17,50,52)       -178.8022         estimate D2E/DX2                !
 ! D94   D(19,17,50,53)        -59.0155         estimate D2E/DX2                !
 ! D95   D(20,17,50,51)        -60.4297         estimate D2E/DX2                !
 ! D96   D(20,17,50,52)         59.6277         estimate D2E/DX2                !
 ! D97   D(20,17,50,53)        179.4145         estimate D2E/DX2                !
 ! D98   D(16,18,21,29)         40.2172         estimate D2E/DX2                !
 ! D99   D(22,18,21,29)        -89.4299         estimate D2E/DX2                !
 ! D100  D(46,18,21,29)        154.4473         estimate D2E/DX2                !
 ! D101  D(16,18,22,2)         -73.6876         estimate D2E/DX2                !
 ! D102  D(21,18,22,2)          56.2921         estimate D2E/DX2                !
 ! D103  D(46,18,22,2)         172.7913         estimate D2E/DX2                !
 ! D104  D(16,18,46,47)         60.1147         estimate D2E/DX2                !
 ! D105  D(16,18,46,48)       -179.8272         estimate D2E/DX2                !
 ! D106  D(16,18,46,49)        -59.6714         estimate D2E/DX2                !
 ! D107  D(21,18,46,47)        -59.6286         estimate D2E/DX2                !
 ! D108  D(21,18,46,48)         60.4295         estimate D2E/DX2                !
 ! D109  D(21,18,46,49)       -179.4147         estimate D2E/DX2                !
 ! D110  D(22,18,46,47)        178.801          estimate D2E/DX2                !
 ! D111  D(22,18,46,48)        -61.1409         estimate D2E/DX2                !
 ! D112  D(22,18,46,49)         59.0149         estimate D2E/DX2                !
 ! D113  D(17,20,27,26)         14.3987         estimate D2E/DX2                !
 ! D114  D(18,21,29,28)        -14.3764         estimate D2E/DX2                !
 ! D115  D(6,25,35,32)          33.0838         estimate D2E/DX2                !
 ! D116  D(10,25,35,32)        -13.9174         estimate D2E/DX2                !
 ! D117  D(14,25,35,32)        -22.6336         estimate D2E/DX2                !
 ! D118  D(32,35,42,39)         -0.0032         estimate D2E/DX2                !
 ! D119  D(6,25,42,39)         -33.0872         estimate D2E/DX2                !
 ! D120  D(10,25,42,39)         22.6267         estimate D2E/DX2                !
 ! D121  D(14,25,42,39)         13.9152         estimate D2E/DX2                !
 ! D122  D(7,26,27,20)         -40.11           estimate D2E/DX2                !
 ! D123  D(10,26,27,20)       -162.8369         estimate D2E/DX2                !
 ! D124  D(30,26,27,20)         79.4701         estimate D2E/DX2                !
 ! D125  D(7,26,30,31)          71.2357         estimate D2E/DX2                !
 ! D126  D(7,26,30,32)        -108.2731         estimate D2E/DX2                !
 ! D127  D(10,26,30,31)       -169.6105         estimate D2E/DX2                !
 ! D128  D(10,26,30,32)         10.8806         estimate D2E/DX2                !
 ! D129  D(27,26,30,31)        -48.1996         estimate D2E/DX2                !
 ! D130  D(27,26,30,32)        132.2915         estimate D2E/DX2                !
 ! D131  D(11,28,29,21)         40.0872         estimate D2E/DX2                !
 ! D132  D(14,28,29,21)        162.8161         estimate D2E/DX2                !
 ! D133  D(37,28,29,21)        -79.4924         estimate D2E/DX2                !
 ! D134  D(11,28,37,38)        -71.2346         estimate D2E/DX2                !
 ! D135  D(11,28,37,39)        108.2762         estimate D2E/DX2                !
 ! D136  D(14,28,37,38)        169.6128         estimate D2E/DX2                !
 ! D137  D(14,28,37,39)        -10.8765         estimate D2E/DX2                !
 ! D138  D(29,28,37,38)         48.2029         estimate D2E/DX2                !
 ! D139  D(29,28,37,39)       -132.2864         estimate D2E/DX2                !
 ! D140  D(26,30,31,33)       -179.8718         estimate D2E/DX2                !
 ! D141  D(26,30,31,34)         -1.7397         estimate D2E/DX2                !
 ! D142  D(32,30,31,33)         -0.3031         estimate D2E/DX2                !
 ! D143  D(32,30,31,34)        177.8291         estimate D2E/DX2                !
 ! D144  D(26,30,32,35)          0.408          estimate D2E/DX2                !
 ! D145  D(26,30,32,44)        179.9802         estimate D2E/DX2                !
 ! D146  D(31,30,32,35)       -179.1687         estimate D2E/DX2                !
 ! D147  D(31,30,32,44)          0.4036         estimate D2E/DX2                !
 ! D148  D(30,31,33,36)        179.9854         estimate D2E/DX2                !
 ! D149  D(30,31,33,44)          0.0852         estimate D2E/DX2                !
 ! D150  D(34,31,33,36)          2.2509         estimate D2E/DX2                !
 ! D151  D(34,31,33,44)       -177.6493         estimate D2E/DX2                !
 ! D152  D(30,31,34,15)        -21.8891         estimate D2E/DX2                !
 ! D153  D(33,31,34,15)        155.61           estimate D2E/DX2                !
 ! D154  D(30,32,35,25)          7.17           estimate D2E/DX2                !
 ! D155  D(44,32,35,25)       -172.3115         estimate D2E/DX2                !
 ! D156  D(30,32,44,33)         -0.3457         estimate D2E/DX2                !
 ! D157  D(30,32,44,54)        179.7878         estimate D2E/DX2                !
 ! D158  D(35,32,44,33)        179.2047         estimate D2E/DX2                !
 ! D159  D(35,32,44,54)         -0.6618         estimate D2E/DX2                !
 ! D160  D(31,33,44,32)          0.1586         estimate D2E/DX2                !
 ! D161  D(31,33,44,54)       -179.9746         estimate D2E/DX2                !
 ! D162  D(36,33,44,32)       -179.7526         estimate D2E/DX2                !
 ! D163  D(36,33,44,54)          0.1142         estimate D2E/DX2                !
 ! D164  D(28,37,38,40)        179.8723         estimate D2E/DX2                !
 ! D165  D(28,37,38,41)          1.7416         estimate D2E/DX2                !
 ! D166  D(39,37,38,40)          0.3019         estimate D2E/DX2                !
 ! D167  D(39,37,38,41)       -177.8289         estimate D2E/DX2                !
 ! D168  D(28,37,39,42)         -0.4098         estimate D2E/DX2                !
 ! D169  D(28,37,39,45)       -179.9803         estimate D2E/DX2                !
 ! D170  D(38,37,39,42)        179.1685         estimate D2E/DX2                !
 ! D171  D(38,37,39,45)         -0.4021         estimate D2E/DX2                !
 ! D172  D(37,38,40,43)       -179.9855         estimate D2E/DX2                !
 ! D173  D(37,38,40,45)         -0.0848         estimate D2E/DX2                !
 ! D174  D(41,38,40,43)         -2.2527         estimate D2E/DX2                !
 ! D175  D(41,38,40,45)        177.648          estimate D2E/DX2                !
 ! D176  D(37,38,41,16)         21.8909         estimate D2E/DX2                !
 ! D177  D(40,38,41,16)       -155.6064         estimate D2E/DX2                !
 ! D178  D(37,39,42,25)         -7.1684         estimate D2E/DX2                !
 ! D179  D(45,39,42,25)        172.3111         estimate D2E/DX2                !
 ! D180  D(37,39,45,40)          0.3444         estimate D2E/DX2                !
 ! D181  D(37,39,45,58)       -179.7987         estimate D2E/DX2                !
 ! D182  D(42,39,45,40)       -179.2042         estimate D2E/DX2                !
 ! D183  D(42,39,45,58)          0.6527         estimate D2E/DX2                !
 ! D184  D(38,40,45,39)         -0.1581         estimate D2E/DX2                !
 ! D185  D(38,40,45,58)        179.9847         estimate D2E/DX2                !
 ! D186  D(43,40,45,39)        179.7536         estimate D2E/DX2                !
 ! D187  D(43,40,45,58)         -0.1036         estimate D2E/DX2                !
 ! D188  D(32,44,54,55)         -1.7847         estimate D2E/DX2                !
 ! D189  D(32,44,54,56)        118.0355         estimate D2E/DX2                !
 ! D190  D(32,44,54,57)       -121.507          estimate D2E/DX2                !
 ! D191  D(33,44,54,55)        178.3701         estimate D2E/DX2                !
 ! D192  D(33,44,54,56)        -61.8097         estimate D2E/DX2                !
 ! D193  D(33,44,54,57)         58.6479         estimate D2E/DX2                !
 ! D194  D(39,45,58,59)       -117.9363         estimate D2E/DX2                !
 ! D195  D(39,45,58,60)          1.8869         estimate D2E/DX2                !
 ! D196  D(39,45,58,61)        121.6064         estimate D2E/DX2                !
 ! D197  D(40,45,58,59)         61.8977         estimate D2E/DX2                !
 ! D198  D(40,45,58,60)       -178.2791         estimate D2E/DX2                !
 ! D199  D(40,45,58,61)        -58.5596         estimate D2E/DX2                !
 --------------------------------------------------------------------------------
 Trust Radius=3.00D-01 FncErr=1.00D-07 GrdErr=1.00D-06
 Number of steps in this run=    366 maximum allowed number of steps=    366.
 GradGradGradGradGradGradGradGradGradGradGradGradGradGradGradGradGradGrad

 Leave Link  103 at Fri Nov 15 11:04:55 2024, MaxMem=  8589934592 cpu:         2.4
 (Enter /software/LNS/gaussian/g09/l202.exe)
 Stoichiometry    C17H29ClN6O6S2
 Framework group  C1[X(C17H29ClN6O6S2)]
 Deg. of freedom   177
 Full point group                 C1      NOp   1
 Largest Abelian subgroup         C1      NOp   1
 Largest concise Abelian subgroup C1      NOp   1
                         Standard orientation:                         
 ---------------------------------------------------------------------
 Center     Atomic      Atomic             Coordinates (Angstroms)
 Number     Number       Type             X           Y           Z
 ---------------------------------------------------------------------
      1          6           0       -0.684249   -1.837263    1.194071
      2          1           0       -1.424058   -2.606044    0.979180
      3          6           0        0.684258   -1.837230    1.194093
      4          1           0        1.424098   -2.605993    0.979233
      5          6           0       -0.000054    0.260685    1.621308
      6          1           0       -0.000086    1.336037    1.706766
      7          6           0        2.449796    0.051828    1.344208
      8          1           0        3.200674   -0.728353    1.490895
      9          1           0        2.557788    0.845811    2.084933
     10          1           0        1.699083    1.204766   -0.349184
     11          6           0       -2.449882    0.051714    1.344070
     12          1           0       -2.557955    0.845655    2.084828
     13          1           0       -3.200734   -0.728508    1.490667
     14          1           0       -1.699137    1.204784   -0.349225
     15          8           0        4.847341   -1.755864    0.615135
     16          8           0       -4.847353   -1.755846    0.615040
     17         16           0        4.029561   -2.738482   -0.384476
     18         16           0       -4.029535   -2.738469   -0.384544
     19          8           0        2.972542   -3.664237    0.401290
     20          8           0        3.408993   -1.966884   -1.651091
     21          8           0       -3.408975   -1.966860   -1.651153
     22          8           0       -2.972494   -3.664195    0.401225
     23          7           0        1.086386   -0.515831    1.464888
     24          7           0       -1.086457   -0.515882    1.464832
     25         17           0        0.000167    3.206422   -0.109451
     26          6           0        2.581029    0.611236   -0.095442
     27          1           0        2.746023   -0.216965   -0.795103
     28          6           0       -2.581076    0.611216   -0.095552
     29          1           0       -2.746057   -0.216906   -0.795309
     30          7           0        3.742229    1.525132   -0.170600
     31          6           0        5.088940    1.144922   -0.122299
     32          6           0        3.649069    2.863953   -0.287826
     33          6           0        5.814363    2.296968   -0.220971
     34          1           0        5.345062    0.100212    0.007094
     35          1           0        2.716062    3.406963   -0.332542
     36          1           0        6.875563    2.461439   -0.225349
     37          7           0       -3.742278    1.525117   -0.170644
     38          6           0       -5.088991    1.144911   -0.122358
     39          6           0       -3.649104    2.863942   -0.287823
     40          6           0       -5.814402    2.296970   -0.220964
     41          1           0       -5.345127    0.100199    0.007002
     42          1           0       -2.716089    3.406946   -0.332516
     43          1           0       -6.875600    2.461452   -0.225331
     44          7           0        4.901173    3.357532   -0.325492
     45          7           0       -4.901203    3.357533   -0.325439
     46          6           0       -5.321166   -3.906398   -1.060399
     47          1           0       -6.061674   -3.300694   -1.579654
     48          1           0       -4.822425   -4.594969   -1.739911
     49          1           0       -5.758619   -4.429536   -0.212221
     50          6           0        5.321197   -3.906384   -1.060367
     51          1           0        4.822440   -4.594948   -1.739874
     52          1           0        6.061681   -3.300665   -1.579640
     53          1           0        5.758684   -4.429532   -0.212212
     54          6           0        5.260316    4.790438   -0.453459
     55          1           0        4.343235    5.372008   -0.543734
     56          1           0        5.811902    5.103311    0.434170
     57          1           0        5.874395    4.927152   -1.344503
     58          6           0       -5.260378    4.790454   -0.453114
     59          1           0       -5.810482    5.103612    0.435339
     60          1           0       -4.343385    5.371903   -0.545059
     61          1           0       -5.875892    4.927015   -1.343186
 ---------------------------------------------------------------------
 Rotational constants (GHZ):      0.1288965      0.0639511      0.0455055
 Leave Link  202 at Fri Nov 15 11:04:56 2024, MaxMem=  8589934592 cpu:        15.6
 (Enter /software/LNS/gaussian/g09/l301.exe)
 Standard basis: 6-311G(d,p) (5D, 7F)
 Ernie: Thresh=  0.10000D-02 Tol=  0.10000D-05 Strict=F.
 There are   806 symmetry adapted cartesian basis functions of A   symmetry.
 There are   774 symmetry adapted basis functions of A   symmetry.
   774 basis functions,  1301 primitive gaussians,   806 cartesian basis functions
   135 alpha electrons      135 beta electrons
       nuclear repulsion energy      4012.5622588686 Hartrees.
 IExCor=  402 DFT=T Ex+Corr=B3LYP ExCW=0 ScaHFX=  0.200000
 ScaDFX=  0.800000  0.720000  1.000000  0.810000 ScalE2=  1.000000  1.000000
 IRadAn=      0 IRanWt=     -1 IRanGd=            0 ICorTp=0 IEmpDi=  4
 NAtoms=   61 NActive=   61 NUniq=   61 SFac= 1.00D+00 NAtFMM=   60 NAOKFM=T Big=T
 Integral buffers will be    131072 words long.
 Raffenetti 2 integral format.
 Two-electron integral symmetry is turned on.
 ------------------------------------------------------------------------------
 Polarizable Continuum Model (PCM)
 =================================
 Model                : C-PCM.
 Atomic radii         : UFF (Universal Force Field).
 Polarization charges : Total charges.
 Charge compensation  : None.
 Solution method      : On-the-fly selection.
 Cavity type          : Scaled VdW (van der Waals Surface) (Alpha=1.100).
 Cavity algorithm     : GePol (No added spheres)
                        Default sphere list used, NSphG=   61.
                        Lebedev-Laikov grids with approx.  5.0 points / Ang**2.
                        Smoothing algorithm: Karplus/York (Gamma=1.0000).
                        Polarization charges: spherical gaussians, with
                                              point-specific exponents (IZeta= 3).
                        Self-potential: point-specific (ISelfS= 7).
                        Self-field    : sphere-specific E.n sum rule (ISelfD= 2).
 1st derivatives      : Analytical E(r).r(x)/FMM algorithm (CHGder, D1EAlg=3).
                        Cavity 1st derivative terms included.
 Solvent              : Ethanol, Eps=  24.852000 Eps(inf)=   1.852593
 ------------------------------------------------------------------------------
 GePol: Number of generator spheres                  =      61
 GePol: Total number of spheres                      =      61
 GePol: Number of exposed spheres                    =      61 (100.00%)
 GePol: Number of points                             =    4545
 GePol: Average weight of points                     =       0.13
 GePol: Minimum weight of points                     =   0.26D-11
 GePol: Maximum weight of points                     =    0.21616
 GePol: Number of points with low weight             =     322
 GePol: Fraction of low-weight points (<1% of avg)   =       7.08%
 GePol: Cavity surface area                          =    577.384 Ang**2
 GePol: Cavity volume                                =    660.716 Ang**3
 Leave Link  301 at Fri Nov 15 11:04:58 2024, MaxMem=  8589934592 cpu:        10.5
 (Enter /software/LNS/gaussian/g09/l302.exe)
 NPDir=0 NMtPBC=     1 NCelOv=     1 NCel=       1 NClECP=     1 NCelD=      1
         NCelK=      1 NCelE2=     1 NClLst=     1 CellRange=     0.0.
 One-electron integrals computed using PRISM.
 NBasis=   774 RedAO= T EigKep=  6.06D-04  NBF=   774
 NBsUse=   774 1.00D-06 EigRej= -1.00D+00 NBFU=   774
 Precomputing XC quadrature grid using
 IXCGrd= 4 IRadAn=           0 IRanWt=          -1 IRanGd=           0 AccXCQ= 0.00D+00.
 Generated NRdTot=       0 NPtTot=           0 NUsed=           0 NTot=          32
 NSgBfM=   734   734   734   734   734 MxSgAt=    61 MxSgA2=    61.
 Leave Link  302 at Fri Nov 15 11:05:52 2024, MaxMem=  8589934592 cpu:      1273.1
 (Enter /software/LNS/gaussian/g09/l303.exe)
 DipDrv:  MaxL=1.
 Leave Link  303 at Fri Nov 15 11:05:56 2024, MaxMem=  8589934592 cpu:        78.4
 (Enter /software/LNS/gaussian/g09/l401.exe)
 ExpMin= 7.71D-02 ExpMax= 1.06D+05 ExpMxC= 3.62D+03 IAcc=2 IRadAn=         4 AccDes= 0.00D+00
 Harris functional with IExCor=  402 and IRadAn=       4 diagonalized for initial guess.
 HarFok:  IExCor=  402 AccDes= 0.00D+00 IRadAn=         4 IDoV= 1 UseB2=F ITyADJ=14
 ICtDFT=  3500011 ScaDFX=  1.000000  1.000000  1.000000  1.000000
 FoFCou: FMM=F IPFlag=           0 FMFlag=      100000 FMFlg1=        2001
         NFxFlg=           0 DoJE=T BraDBF=F KetDBF=T FulRan=T
         wScrn=  0.000000 ICntrl=     500 IOpCl=  0 I1Cent=   200000004 NGrid=           0
         NMat0=    1 NMatS0=      1 NMatT0=    0 NMatD0=    1 NMtDS0=    0 NMtDT0=    0
 Petite list used in FoFCou.
 Harris En= -2702.03763338816    
 JPrj=0 DoOrth=F DoCkMO=F.
 Leave Link  401 at Fri Nov 15 11:06:40 2024, MaxMem=  8589934592 cpu:      1047.4
 (Enter /software/LNS/gaussian/g09/l502.exe)
 Closed shell SCF:
 Using DIIS extrapolation, IDIIS=  1040.
 Integral symmetry usage will be decided dynamically.
 IVT=     2094387 IEndB=     2094387 NGot=  8589934592 MDV=  8588507288
 LenX=  8588507288 LenY=  8587856846
 Requested convergence on RMS density matrix=1.00D-08 within 128 cycles.
 Requested convergence on MAX density matrix=1.00D-06.
 Requested convergence on             energy=1.00D-06.
 No special actions if energy rises.
 Fock matrices will be formed incrementally for  20 cycles.

 Cycle   1  Pass 1  IDiag  1:
 FoFJK:  IHMeth= 1 ICntrl=       0 DoSepK=F KAlg= 0 I1Cent=   0 FoldK=F
 IRaf= 650000000 NMat=   1 IRICut=       1 DoRegI=T DoRafI=F ISym2E= 0.
 FoFCou: FMM=T IPFlag=           0 FMFlag=      100000 FMFlg1=        2001
         NFxFlg=           0 DoJE=F BraDBF=F KetDBF=F FulRan=T
         wScrn=  0.000000 ICntrl=       0 IOpCl=  0 I1Cent=           0 NGrid=           0
         NMat0=    1 NMatS0=      1 NMatT0=    0 NMatD0=    1 NMtDS0=    0 NMtDT0=    0
 Symmetry not used in FoFCou.
 FMM levels:  10  Number of levels for PrismC:   9
 Inv3:  Mode=1 IEnd=    61971075.
 Iteration    1 A*A^-1 deviation from unit magnitude is 7.66D-15 for   4536.
 Iteration    1 A*A^-1 deviation from orthogonality  is 5.62D-15 for   4535   2209.
 Iteration    1 A^-1*A deviation from unit magnitude is 7.66D-15 for   4536.
 Iteration    1 A^-1*A deviation from orthogonality  is 2.44D-15 for   3905   1231.
 E= -2700.96252681932    
 DIIS: error= 4.42D-02 at cycle   1 NSaved=   1.
 NSaved= 1 IEnMin= 1 EnMin= -2700.96252681932     IErMin= 1 ErrMin= 4.42D-02
 ErrMax= 4.42D-02  0.00D+00 EMaxC= 1.00D-01 BMatC= 1.56D+00 BMatP= 1.56D+00
 IDIUse=3 WtCom= 5.58D-01 WtEn= 4.42D-01
 Coeff-Com:  0.100D+01
 Coeff-En:   0.100D+01
 Coeff:      0.100D+01
 Gap=     0.173 Goal=   None    Shift=    0.000
 GapD=    0.173 DampG=1.000 DampE=0.500 DampFc=0.5000 IDamp=-1.
 Damping current iteration by 5.00D-01
 RMSDP=3.02D-03 MaxDP=4.39D-01              OVMax= 2.84D-01

 Cycle   2  Pass 1  IDiag  1:
 RMSU=  1.51D-03    CP:  1.01D+00
 E= -2701.15592383760     Delta-E=       -0.193397018283 Rises=F Damp=T
 DIIS: error= 2.20D-02 at cycle   2 NSaved=   2.
 NSaved= 2 IEnMin= 2 EnMin= -2701.15592383760     IErMin= 2 ErrMin= 2.20D-02
 ErrMax= 2.20D-02  0.00D+00 EMaxC= 1.00D-01 BMatC= 2.82D-01 BMatP= 1.56D+00
 IDIUse=3 WtCom= 7.80D-01 WtEn= 2.20D-01
 Coeff-Com:  0.251D+00 0.749D+00
 Coeff-En:   0.420D+00 0.580D+00
 Coeff:      0.288D+00 0.712D+00
 Gap=     0.226 Goal=   None    Shift=    0.000
 RMSDP=8.22D-04 MaxDP=9.61D-02 DE=-1.93D-01 OVMax= 2.04D-01

 Cycle   3  Pass 1  IDiag  1:
 RMSU=  5.80D-04    CP:  1.00D+00  6.15D-01
 E= -2702.01368618321     Delta-E=       -0.857762345603 Rises=F Damp=F
 DIIS: error= 1.28D-02 at cycle   3 NSaved=   3.
 NSaved= 3 IEnMin= 3 EnMin= -2702.01368618321     IErMin= 3 ErrMin= 1.28D-02
 ErrMax= 1.28D-02  0.00D+00 EMaxC= 1.00D-01 BMatC= 6.53D-02 BMatP= 2.82D-01
 IDIUse=3 WtCom= 8.72D-01 WtEn= 1.28D-01
 Coeff-Com:  0.680D-01 0.321D+00 0.611D+00
 Coeff-En:   0.000D+00 0.000D+00 0.100D+01
 Coeff:      0.593D-01 0.280D+00 0.661D+00
 Gap=     0.214 Goal=   None    Shift=    0.000
 RMSDP=3.79D-04 MaxDP=4.45D-02 DE=-8.58D-01 OVMax= 6.26D-02

 Cycle   4  Pass 1  IDiag  1:
 RMSU=  2.34D-04    CP:  1.01D+00  6.95D-01  5.38D-01
 E= -2702.05726388659     Delta-E=       -0.043577703383 Rises=F Damp=F
 DIIS: error= 7.83D-03 at cycle   4 NSaved=   4.
 NSaved= 4 IEnMin= 4 EnMin= -2702.05726388659     IErMin= 4 ErrMin= 7.83D-03
 ErrMax= 7.83D-03  0.00D+00 EMaxC= 1.00D-01 BMatC= 2.03D-02 BMatP= 6.53D-02
 IDIUse=3 WtCom= 9.22D-01 WtEn= 7.83D-02
 Coeff-Com:  0.725D-02 0.595D-01 0.368D+00 0.565D+00
 Coeff-En:   0.000D+00 0.000D+00 0.241D+00 0.759D+00
 Coeff:      0.668D-02 0.548D-01 0.358D+00 0.580D+00
 Gap=     0.216 Goal=   None    Shift=    0.000
 RMSDP=1.48D-04 MaxDP=1.98D-02 DE=-4.36D-02 OVMax= 2.97D-02

 Cycle   5  Pass 1  IDiag  1:
 RMSU=  6.34D-05    CP:  1.01D+00  6.69D-01  6.82D-01  5.90D-01
 E= -2702.07499099110     Delta-E=       -0.017727104511 Rises=F Damp=F
 DIIS: error= 8.46D-04 at cycle   5 NSaved=   5.
 NSaved= 5 IEnMin= 5 EnMin= -2702.07499099110     IErMin= 5 ErrMin= 8.46D-04
 ErrMax= 8.46D-04  0.00D+00 EMaxC= 1.00D-01 BMatC= 8.30D-04 BMatP= 2.03D-02
 IDIUse=3 WtCom= 9.92D-01 WtEn= 8.46D-03
 Coeff-Com: -0.669D-03 0.896D-02 0.138D+00 0.279D+00 0.575D+00
 Coeff-En:   0.000D+00 0.000D+00 0.000D+00 0.000D+00 0.100D+01
 Coeff:     -0.663D-03 0.888D-02 0.136D+00 0.277D+00 0.579D+00
 Gap=     0.212 Goal=   None    Shift=    0.000
 RMSDP=3.60D-05 MaxDP=3.55D-03 DE=-1.77D-02 OVMax= 4.26D-03

 Cycle   6  Pass 1  IDiag  1:
 RMSU=  1.89D-05    CP:  1.01D+00  6.72D-01  6.80D-01  6.40D-01  5.60D-01
 E= -2702.07567320895     Delta-E=       -0.000682217845 Rises=F Damp=F
 DIIS: error= 2.20D-04 at cycle   6 NSaved=   6.
 NSaved= 6 IEnMin= 6 EnMin= -2702.07567320895     IErMin= 6 ErrMin= 2.20D-04
 ErrMax= 2.20D-04  0.00D+00 EMaxC= 1.00D-01 BMatC= 6.22D-05 BMatP= 8.30D-04
 IDIUse=3 WtCom= 9.98D-01 WtEn= 2.20D-03
 Coeff-Com: -0.444D-03 0.265D-04 0.378D-01 0.864D-01 0.283D+00 0.594D+00
 Coeff-En:   0.000D+00 0.000D+00 0.000D+00 0.000D+00 0.000D+00 0.100D+01
 Coeff:     -0.443D-03 0.264D-04 0.377D-01 0.862D-01 0.282D+00 0.594D+00
 Gap=     0.211 Goal=   None    Shift=    0.000
 RMSDP=1.03D-05 MaxDP=5.15D-04 DE=-6.82D-04 OVMax= 1.42D-03

 Cycle   7  Pass 1  IDiag  1:
 RMSU=  7.55D-06    CP:  1.01D+00  6.71D-01  6.82D-01  6.40D-01  6.09D-01
                    CP:  6.73D-01
 E= -2702.07571314705     Delta-E=       -0.000039938102 Rises=F Damp=F
 DIIS: error= 1.54D-04 at cycle   7 NSaved=   7.
 NSaved= 7 IEnMin= 7 EnMin= -2702.07571314705     IErMin= 7 ErrMin= 1.54D-04
 ErrMax= 1.54D-04  0.00D+00 EMaxC= 1.00D-01 BMatC= 1.92D-05 BMatP= 6.22D-05
 IDIUse=3 WtCom= 9.98D-01 WtEn= 1.54D-03
 Coeff-Com: -0.201D-03-0.103D-02 0.117D-01 0.301D-01 0.135D+00 0.405D+00
 Coeff-Com:  0.420D+00
 Coeff-En:   0.000D+00 0.000D+00 0.000D+00 0.000D+00 0.000D+00 0.199D+00
 Coeff-En:   0.801D+00
 Coeff:     -0.201D-03-0.103D-02 0.117D-01 0.301D-01 0.135D+00 0.404D+00
 Coeff:      0.420D+00
 Gap=     0.211 Goal=   None    Shift=    0.000
 RMSDP=4.74D-06 MaxDP=3.60D-04 DE=-3.99D-05 OVMax= 7.61D-04

 Cycle   8  Pass 1  IDiag  1:
 RMSU=  2.01D-06    CP:  1.01D+00  6.71D-01  6.82D-01  6.40D-01  6.19D-01
                    CP:  7.30D-01  4.56D-01
 E= -2702.07572726313     Delta-E=       -0.000014116082 Rises=F Damp=F
 DIIS: error= 3.49D-05 at cycle   8 NSaved=   8.
 NSaved= 8 IEnMin= 8 EnMin= -2702.07572726313     IErMin= 8 ErrMin= 3.49D-05
 ErrMax= 3.49D-05  0.00D+00 EMaxC= 1.00D-01 BMatC= 1.11D-06 BMatP= 1.92D-05
 IDIUse=1 WtCom= 1.00D+00 WtEn= 0.00D+00
 Coeff-Com: -0.718D-04-0.634D-03 0.330D-02 0.952D-02 0.521D-01 0.177D+00
 Coeff-Com:  0.243D+00 0.515D+00
 Coeff:     -0.718D-04-0.634D-03 0.330D-02 0.952D-02 0.521D-01 0.177D+00
 Coeff:      0.243D+00 0.515D+00
 Gap=     0.211 Goal=   None    Shift=    0.000
 RMSDP=1.28D-06 MaxDP=6.34D-05 DE=-1.41D-05 OVMax= 1.85D-04

 Cycle   9  Pass 1  IDiag  1:
 RMSU=  7.89D-07    CP:  1.01D+00  6.71D-01  6.82D-01  6.40D-01  6.21D-01
                    CP:  7.35D-01  5.18D-01  5.67D-01
 E= -2702.07572804033     Delta-E=       -0.000000777201 Rises=F Damp=F
 DIIS: error= 1.28D-05 at cycle   9 NSaved=   9.
 NSaved= 9 IEnMin= 9 EnMin= -2702.07572804033     IErMin= 9 ErrMin= 1.28D-05
 ErrMax= 1.28D-05  0.00D+00 EMaxC= 1.00D-01 BMatC= 1.47D-07 BMatP= 1.11D-06
 IDIUse=1 WtCom= 1.00D+00 WtEn= 0.00D+00
 Coeff-Com:  0.799D-05-0.126D-03-0.494D-03-0.640D-03 0.272D-02 0.202D-01
 Coeff-Com:  0.533D-01 0.297D+00 0.628D+00
 Coeff:      0.799D-05-0.126D-03-0.494D-03-0.640D-03 0.272D-02 0.202D-01
 Coeff:      0.533D-01 0.297D+00 0.628D+00
 Gap=     0.211 Goal=   None    Shift=    0.000
 RMSDP=3.75D-07 MaxDP=3.15D-05 DE=-7.77D-07 OVMax= 5.99D-05

 Cycle  10  Pass 1  IDiag  1:
 RMSU=  1.62D-07    CP:  1.01D+00  6.71D-01  6.82D-01  6.40D-01  6.20D-01
                    CP:  7.37D-01  5.22D-01  6.92D-01  7.25D-01
 E= -2702.07572816746     Delta-E=       -0.000000127125 Rises=F Damp=F
 DIIS: error= 2.02D-06 at cycle  10 NSaved=  10.
 NSaved=10 IEnMin=10 EnMin= -2702.07572816746     IErMin=10 ErrMin= 2.02D-06
 ErrMax= 2.02D-06  0.00D+00 EMaxC= 1.00D-01 BMatC= 2.62D-09 BMatP= 1.47D-07
 IDIUse=1 WtCom= 1.00D+00 WtEn= 0.00D+00
 Coeff-Com: -0.467D-06-0.953D-05-0.324D-03-0.582D-03-0.147D-02-0.121D-02
 Coeff-Com:  0.685D-02 0.731D-01 0.199D+00 0.724D+00
 Coeff:     -0.467D-06-0.953D-05-0.324D-03-0.582D-03-0.147D-02-0.121D-02
 Coeff:      0.685D-02 0.731D-01 0.199D+00 0.724D+00
 Gap=     0.211 Goal=   None    Shift=    0.000
 RMSDP=6.78D-08 MaxDP=8.58D-06 DE=-1.27D-07 OVMax= 2.12D-05

 Cycle  11  Pass 1  IDiag  1:
 RMSU=  4.69D-08    CP:  1.01D+00  6.71D-01  6.82D-01  6.40D-01  6.20D-01
                    CP:  7.38D-01  5.22D-01  6.97D-01  7.64D-01  8.04D-01
 E= -2702.07572816928     Delta-E=       -0.000000001827 Rises=F Damp=F
 DIIS: error= 1.23D-06 at cycle  11 NSaved=  11.
 NSaved=11 IEnMin=11 EnMin= -2702.07572816928     IErMin=11 ErrMin= 1.23D-06
 ErrMax= 1.23D-06  0.00D+00 EMaxC= 1.00D-01 BMatC= 6.91D-10 BMatP= 2.62D-09
 IDIUse=1 WtCom= 1.00D+00 WtEn= 0.00D+00
 Coeff-Com: -0.147D-05 0.524D-05-0.167D-03-0.315D-03-0.118D-02-0.237D-02
 Coeff-Com: -0.832D-04 0.193D-01 0.655D-01 0.405D+00 0.514D+00
 Coeff:     -0.147D-05 0.524D-05-0.167D-03-0.315D-03-0.118D-02-0.237D-02
 Coeff:     -0.832D-04 0.193D-01 0.655D-01 0.405D+00 0.514D+00
 Gap=     0.211 Goal=   None    Shift=    0.000
 RMSDP=2.61D-08 MaxDP=3.83D-06 DE=-1.83D-09 OVMax= 8.09D-06

 Cycle  12  Pass 1  IDiag  1:
 RMSU=  1.65D-08    CP:  1.01D+00  6.71D-01  6.82D-01  6.40D-01  6.20D-01
                    CP:  7.38D-01  5.23D-01  6.99D-01  7.63D-01  8.51D-01
                    CP:  6.32D-01
 E= -2702.07572816984     Delta-E=       -0.000000000553 Rises=F Damp=F
 DIIS: error= 2.80D-07 at cycle  12 NSaved=  12.
 NSaved=12 IEnMin=12 EnMin= -2702.07572816984     IErMin=12 ErrMin= 2.80D-07
 ErrMax= 2.80D-07  0.00D+00 EMaxC= 1.00D-01 BMatC= 5.29D-11 BMatP= 6.91D-10
 IDIUse=1 WtCom= 1.00D+00 WtEn= 0.00D+00
 Coeff-Com: -0.867D-06 0.388D-05-0.561D-04-0.106D-03-0.463D-03-0.985D-03
 Coeff-Com: -0.504D-03 0.282D-02 0.130D-01 0.130D+00 0.254D+00 0.602D+00
 Coeff:     -0.867D-06 0.388D-05-0.561D-04-0.106D-03-0.463D-03-0.985D-03
 Coeff:     -0.504D-03 0.282D-02 0.130D-01 0.130D+00 0.254D+00 0.602D+00
 Gap=     0.211 Goal=   None    Shift=    0.000
 RMSDP=1.03D-08 MaxDP=6.01D-07 DE=-5.53D-10 OVMax= 1.96D-06

 Cycle  13  Pass 1  IDiag  1:
 RMSU=  7.06D-09    CP:  1.01D+00  6.71D-01  6.82D-01  6.40D-01  6.20D-01
                    CP:  7.38D-01  5.23D-01  6.99D-01  7.65D-01  8.63D-01
                    CP:  6.91D-01  6.37D-01
 E= -2702.07572816980     Delta-E=        0.000000000039 Rises=F Damp=F
 DIIS: error= 1.57D-07 at cycle  13 NSaved=  13.
 NSaved=13 IEnMin=12 EnMin= -2702.07572816984     IErMin=13 ErrMin= 1.57D-07
 ErrMax= 1.57D-07  0.00D+00 EMaxC= 1.00D-01 BMatC= 1.97D-11 BMatP= 5.29D-11
 IDIUse=1 WtCom= 1.00D+00 WtEn= 0.00D+00
 Coeff-Com: -0.463D-06 0.180D-05-0.118D-04-0.214D-04-0.131D-03-0.292D-03
 Coeff-Com: -0.324D-03-0.119D-02-0.164D-02 0.260D-01 0.866D-01 0.414D+00
 Coeff-Com:  0.477D+00
 Coeff:     -0.463D-06 0.180D-05-0.118D-04-0.214D-04-0.131D-03-0.292D-03
 Coeff:     -0.324D-03-0.119D-02-0.164D-02 0.260D-01 0.866D-01 0.414D+00
 Coeff:      0.477D+00
 Gap=     0.211 Goal=   None    Shift=    0.000
 RMSDP=4.84D-09 MaxDP=2.63D-07 DE= 3.91D-11 OVMax= 8.04D-07

 Error on total polarization charges =  0.01696
 SCF Done:  E(RB3LYP) =  -2702.07572817     A.U. after   13 cycles
            NFock= 13  Conv=0.48D-08     -V/T= 2.0035
 KE= 2.692586549839D+03 PE=-1.439022717776D+04 EE= 4.983002640878D+03
 Leave Link  502 at Fri Nov 15 11:20:43 2024, MaxMem=  8589934592 cpu:     20081.9
 (Enter /software/LNS/gaussian/g09/l601.exe)
 Copying SCF densities to generalized density rwf, IOpCl= 0 IROHF=0.

 **********************************************************************

            Population analysis using the SCF density.

 **********************************************************************

 Orbital symmetries:
       Occupied  (A) (A) (A) (A) (A) (A) (A) (A) (A) (A) (A) (A)
                 (A) (A) (A) (A) (A) (A) (A) (A) (A) (A) (A) (A)
                 (A) (A) (A) (A) (A) (A) (A) (A) (A) (A) (A) (A)
                 (A) (A) (A) (A) (A) (A) (A) (A) (A) (A) (A) (A)
                 (A) (A) (A) (A) (A) (A) (A) (A) (A) (A) (A) (A)
                 (A) (A) (A) (A) (A) (A) (A) (A) (A) (A) (A) (A)
                 (A) (A) (A) (A) (A) (A) (A) (A) (A) (A) (A) (A)
                 (A) (A) (A) (A) (A) (A) (A) (A) (A) (A) (A) (A)
                 (A) (A) (A) (A) (A) (A) (A) (A) (A) (A) (A) (A)
                 (A) (A) (A) (A) (A) (A) (A) (A) (A) (A) (A) (A)
                 (A) (A) (A) (A) (A) (A) (A) (A) (A) (A) (A) (A)
                 (A) (A) (A)
       Virtual   (A) (A) (A) (A) (A) (A) (A) (A) (A) (A) (A) (A)
                 (A) (A) (A) (A) (A) (A) (A) (A) (A) (A) (A) (A)
                 (A) (A) (A) (A) (A) (A) (A) (A) (A) (A) (A) (A)
                 (A) (A) (A) (A) (A) (A) (A) (A) (A) (A) (A) (A)
                 (A) (A) (A) (A) (A) (A) (A) (A) (A) (A) (A) (A)
                 (A) (A) (A) (A) (A) (A) (A) (A) (A) (A) (A) (A)
                 (A) (A) (A) (A) (A) (A) (A) (A) (A) (A) (A) (A)
                 (A) (A) (A) (A) (A) (A) (A) (A) (A) (A) (A) (A)
                 (A) (A) (A) (A) (A) (A) (A) (A) (A) (A) (A) (A)
                 (A) (A) (A) (A) (A) (A) (A) (A) (A) (A) (A) (A)
                 (A) (A) (A) (A) (A) (A) (A) (A) (A) (A) (A) (A)
                 (A) (A) (A) (A) (A) (A) (A) (A) (A) (A) (A) (A)
                 (A) (A) (A) (A) (A) (A) (A) (A) (A) (A) (A) (A)
                 (A) (A) (A) (A) (A) (A) (A) (A) (A) (A) (A) (A)
                 (A) (A) (A) (A) (A) (A) (A) (A) (A) (A) (A) (A)
                 (A) (A) (A) (A) (A) (A) (A) (A) (A) (A) (A) (A)
                 (A) (A) (A) (A) (A) (A) (A) (A) (A) (A) (A) (A)
                 (A) (A) (A) (A) (A) (A) (A) (A) (A) (A) (A) (A)
                 (A) (A) (A) (A) (A) (A) (A) (A) (A) (A) (A) (A)
                 (A) (A) (A) (A) (A) (A) (A) (A) (A) (A) (A) (A)
                 (A) (A) (A) (A) (A) (A) (A) (A) (A) (A) (A) (A)
                 (A) (A) (A) (A) (A) (A) (A) (A) (A) (A) (A) (A)
                 (A) (A) (A) (A) (A) (A) (A) (A) (A) (A) (A) (A)
                 (A) (A) (A) (A) (A) (A) (A) (A) (A) (A) (A) (A)
                 (A) (A) (A) (A) (A) (A) (A) (A) (A) (A) (A) (A)
                 (A) (A) (A) (A) (A) (A) (A) (A) (A) (A) (A) (A)
                 (A) (A) (A) (A) (A) (A) (A) (A) (A) (A) (A) (A)
                 (A) (A) (A) (A) (A) (A) (A) (A) (A) (A) (A) (A)
                 (A) (A) (A) (A) (A) (A) (A) (A) (A) (A) (A) (A)
                 (A) (A) (A) (A) (A) (A) (A) (A) (A) (A) (A) (A)
                 (A) (A) (A) (A) (A) (A) (A) (A) (A) (A) (A) (A)
                 (A) (A) (A) (A) (A) (A) (A) (A) (A) (A) (A) (A)
                 (A) (A) (A) (A) (A) (A) (A) (A) (A) (A) (A) (A)
                 (A) (A) (A) (A) (A) (A) (A) (A) (A) (A) (A) (A)
                 (A) (A) (A) (A) (A) (A) (A) (A) (A) (A) (A) (A)
                 (A) (A) (A) (A) (A) (A) (A) (A) (A) (A) (A) (A)
                 (A) (A) (A) (A) (A) (A) (A) (A) (A) (A) (A) (A)
                 (A) (A) (A) (A) (A) (A) (A) (A) (A) (A) (A) (A)
                 (A) (A) (A) (A) (A) (A) (A) (A) (A) (A) (A) (A)
                 (A) (A) (A) (A) (A) (A) (A) (A) (A) (A) (A) (A)
                 (A) (A) (A) (A) (A) (A) (A) (A) (A) (A) (A) (A)
                 (A) (A) (A) (A) (A) (A) (A) (A) (A) (A) (A) (A)
                 (A) (A) (A) (A) (A) (A) (A) (A) (A) (A) (A) (A)
                 (A) (A) (A) (A) (A) (A) (A) (A) (A) (A) (A) (A)
                 (A) (A) (A) (A) (A) (A) (A) (A) (A) (A) (A) (A)
                 (A) (A) (A) (A) (A) (A) (A) (A) (A) (A) (A) (A)
                 (A) (A) (A) (A) (A) (A) (A) (A) (A) (A) (A) (A)
                 (A) (A) (A) (A) (A) (A) (A) (A) (A) (A) (A) (A)
                 (A) (A) (A) (A) (A) (A) (A) (A) (A) (A) (A) (A)
                 (A) (A) (A) (A) (A) (A) (A) (A) (A) (A) (A) (A)
                 (A) (A) (A) (A) (A) (A) (A) (A) (A) (A) (A) (A)
                 (A) (A) (A) (A) (A) (A) (A) (A) (A) (A) (A) (A)
                 (A) (A) (A) (A) (A) (A) (A) (A) (A) (A) (A) (A)
                 (A) (A) (A)
 The electronic state is 1-A.
 Alpha  occ. eigenvalues -- -101.45239 -89.05711 -89.05711 -19.10282 -19.10282
 Alpha  occ. eigenvalues --  -19.10257 -19.10257 -19.10107 -19.10107 -14.42246
 Alpha  occ. eigenvalues --  -14.42246 -14.41730 -14.41729 -14.41565 -14.41563
 Alpha  occ. eigenvalues --  -10.28409 -10.28408 -10.27770 -10.23792 -10.23792
 Alpha  occ. eigenvalues --  -10.23589 -10.23588 -10.23328 -10.23328 -10.23159
 Alpha  occ. eigenvalues --  -10.23159 -10.22923 -10.22923 -10.22626 -10.22561
 Alpha  occ. eigenvalues --  -10.20718 -10.20718  -9.36678  -8.11488  -8.11488
 Alpha  occ. eigenvalues --   -7.12508  -7.12496  -7.12490  -6.07753  -6.07752
 Alpha  occ. eigenvalues --   -6.07747  -6.07747  -6.07639  -6.07638  -1.07981
 Alpha  occ. eigenvalues --   -1.07941  -1.07556  -1.05089  -1.05086  -0.97049
 Alpha  occ. eigenvalues --   -0.96456  -0.95736  -0.93979  -0.93977  -0.93665
 Alpha  occ. eigenvalues --   -0.93664  -0.83300  -0.81593  -0.80546  -0.78826
 Alpha  occ. eigenvalues --   -0.78689  -0.76023  -0.75270  -0.75249  -0.74237
 Alpha  occ. eigenvalues --   -0.71568  -0.70400  -0.68122  -0.65465  -0.65192
 Alpha  occ. eigenvalues --   -0.63896  -0.62592  -0.62303  -0.61533  -0.60600
 Alpha  occ. eigenvalues --   -0.60569  -0.57430  -0.57122  -0.56732  -0.51906
 Alpha  occ. eigenvalues --   -0.51439  -0.50483  -0.50334  -0.50210  -0.49854
 Alpha  occ. eigenvalues --   -0.48792  -0.48756  -0.48341  -0.48137  -0.47659
 Alpha  occ. eigenvalues --   -0.47544  -0.47274  -0.47078  -0.46970  -0.46775
 Alpha  occ. eigenvalues --   -0.46243  -0.45940  -0.45764  -0.45753  -0.45415
 Alpha  occ. eigenvalues --   -0.45379  -0.44667  -0.43629  -0.43276  -0.42689
 Alpha  occ. eigenvalues --   -0.42661  -0.41955  -0.41887  -0.41823  -0.41762
 Alpha  occ. eigenvalues --   -0.41574  -0.39930  -0.39243  -0.39010  -0.33724
 Alpha  occ. eigenvalues --   -0.32435  -0.31697  -0.31665  -0.31536  -0.31381
 Alpha  occ. eigenvalues --   -0.30955  -0.28778  -0.28738  -0.28624  -0.28615
 Alpha  occ. eigenvalues --   -0.28594  -0.28466  -0.28231  -0.28133  -0.27577
 Alpha  occ. eigenvalues --   -0.26124  -0.26116  -0.25927  -0.25816  -0.25626
 Alpha virt. eigenvalues --   -0.04489  -0.03558  -0.03015  -0.00457  -0.00302
 Alpha virt. eigenvalues --    0.00650   0.01541   0.01599   0.04336   0.04441
 Alpha virt. eigenvalues --    0.05730   0.05785   0.06205   0.06445   0.06474
 Alpha virt. eigenvalues --    0.06594   0.06811   0.06945   0.07225   0.07290
 Alpha virt. eigenvalues --    0.07544   0.07772   0.07950   0.08492   0.08581
 Alpha virt. eigenvalues --    0.09242   0.09789   0.10330   0.10776   0.10823
 Alpha virt. eigenvalues --    0.11136   0.11146   0.11371   0.11421   0.11707
 Alpha virt. eigenvalues --    0.11730   0.12138   0.13053   0.13195   0.13775
 Alpha virt. eigenvalues --    0.14002   0.14098   0.15276   0.15323   0.15464
 Alpha virt. eigenvalues --    0.15779   0.16718   0.17229   0.18173   0.18975
 Alpha virt. eigenvalues --    0.19814   0.19902   0.20630   0.20836   0.21109
 Alpha virt. eigenvalues --    0.21926   0.22056   0.22409   0.23502   0.23539
 Alpha virt. eigenvalues --    0.24717   0.24772   0.25370   0.25754   0.26082
 Alpha virt. eigenvalues --    0.26234   0.26383   0.26424   0.26934   0.26968
 Alpha virt. eigenvalues --    0.28472   0.29301   0.30021   0.30255   0.30600
 Alpha virt. eigenvalues --    0.31086   0.31382   0.31389   0.31623   0.32831
 Alpha virt. eigenvalues --    0.32935   0.33483   0.33495   0.34032   0.34124
 Alpha virt. eigenvalues --    0.34545   0.35138   0.35265   0.36074   0.36179
 Alpha virt. eigenvalues --    0.37387   0.37750   0.37968   0.39314   0.39404
 Alpha virt. eigenvalues --    0.40244   0.41207   0.41636   0.42050   0.42684
 Alpha virt. eigenvalues --    0.43214   0.43708   0.44066   0.44255   0.45783
 Alpha virt. eigenvalues --    0.45818   0.46892   0.46991   0.47440   0.47877
 Alpha virt. eigenvalues --    0.48884   0.49363   0.49912   0.50317   0.51175
 Alpha virt. eigenvalues --    0.51800   0.52664   0.52951   0.53393   0.54026
 Alpha virt. eigenvalues --    0.54525   0.55055   0.55447   0.55889   0.55967
[...]
                 (A) (A) (A) (A) (A) (A) (A) (A) (A) (A) (A) (A)
                 (A) (A) (A) (A) (A) (A) (A) (A) (A) (A) (A) (A)
                 (A) (A) (A) (A) (A) (A) (A) (A) (A) (A) (A) (A)
                 (A) (A) (A) (A) (A) (A) (A) (A) (A) (A) (A) (A)
                 (A) (A) (A) (A) (A) (A) (A) (A) (A) (A) (A) (A)
                 (A) (A) (A) (A) (A) (A) (A) (A) (A) (A) (A) (A)
                 (A) (A) (A)
 The electronic state is 1-A.
 Alpha  occ. eigenvalues -- -101.45030 -89.03821 -89.03821 -19.08134 -19.08134
 Alpha  occ. eigenvalues --  -19.08090 -19.08090 -19.07977 -19.07977 -14.42580
 Alpha  occ. eigenvalues --  -14.42580 -14.42321 -14.42321 -14.42309 -14.42307
 Alpha  occ. eigenvalues --  -10.28634 -10.28634 -10.28160 -10.24617 -10.24617
 Alpha  occ. eigenvalues --  -10.24044 -10.24043 -10.23857 -10.23857 -10.23403
 Alpha  occ. eigenvalues --  -10.23403 -10.23335 -10.23335 -10.23217 -10.23148
 Alpha  occ. eigenvalues --  -10.18576 -10.18576  -9.36433  -8.09799  -8.09799
 Alpha  occ. eigenvalues --   -7.12267  -7.12256  -7.12249  -6.06072  -6.06072
 Alpha  occ. eigenvalues --   -6.06068  -6.06068  -6.05949  -6.05949  -1.10301
 Alpha  occ. eigenvalues --   -1.10299  -1.09479  -1.09405  -1.09222  -0.98495
 Alpha  occ. eigenvalues --   -0.97814  -0.97223  -0.96547  -0.96544  -0.96479
 Alpha  occ. eigenvalues --   -0.96479  -0.84596  -0.82627  -0.81397  -0.79725
 Alpha  occ. eigenvalues --   -0.79539  -0.77071  -0.75196  -0.74575  -0.74569
 Alpha  occ. eigenvalues --   -0.71756  -0.70973  -0.69317  -0.66463  -0.66066
 Alpha  occ. eigenvalues --   -0.65020  -0.63243  -0.62967  -0.62310  -0.58316
 Alpha  occ. eigenvalues --   -0.58015  -0.58003  -0.57266  -0.57139  -0.53051
 Alpha  occ. eigenvalues --   -0.52489  -0.51449  -0.51246  -0.50786  -0.50433
 Alpha  occ. eigenvalues --   -0.49278  -0.49191  -0.48828  -0.48481  -0.48444
 Alpha  occ. eigenvalues --   -0.48165  -0.47659  -0.47580  -0.47484  -0.47289
 Alpha  occ. eigenvalues --   -0.46992  -0.46640  -0.45762  -0.45723  -0.45606
 Alpha  occ. eigenvalues --   -0.45565  -0.45473  -0.44431  -0.43899  -0.42869
 Alpha  occ. eigenvalues --   -0.42841  -0.42624  -0.41427  -0.41414  -0.41395
 Alpha  occ. eigenvalues --   -0.41364  -0.40951  -0.39716  -0.39486  -0.34620
 Alpha  occ. eigenvalues --   -0.33164  -0.32913  -0.32902  -0.32824  -0.32701
 Alpha  occ. eigenvalues --   -0.31855  -0.28902  -0.28840  -0.28801  -0.28801
 Alpha  occ. eigenvalues --   -0.28680  -0.28670  -0.28525  -0.28475  -0.28159
 Alpha  occ. eigenvalues --   -0.25654  -0.25559  -0.25450  -0.25032  -0.25031
 Alpha virt. eigenvalues --   -0.04726  -0.03695  -0.03131  -0.00523  -0.00360
 Alpha virt. eigenvalues --    0.00399   0.04121   0.04395   0.05377   0.05522
 Alpha virt. eigenvalues --    0.05782   0.06187   0.06429   0.07301   0.07514
 Alpha virt. eigenvalues --    0.07686   0.08180   0.08886   0.09265   0.09393
 Alpha virt. eigenvalues --    0.09789   0.10134   0.10340   0.10472   0.10562
 Alpha virt. eigenvalues --    0.10828   0.11001   0.11136   0.11570   0.11584
 Alpha virt. eigenvalues --    0.11644   0.11878   0.12259   0.12440   0.12547
 Alpha virt. eigenvalues --    0.12988   0.13344   0.13371   0.13542   0.13905
 Alpha virt. eigenvalues --    0.14960   0.15081   0.15336   0.15690   0.16018
 Alpha virt. eigenvalues --    0.16234   0.17004   0.17223   0.18071   0.18606
 Alpha virt. eigenvalues --    0.19572   0.19613   0.20512   0.20700   0.20848
 Alpha virt. eigenvalues --    0.21091   0.21696   0.22028   0.23257   0.23653
 Alpha virt. eigenvalues --    0.24964   0.25334   0.25368   0.26071   0.26386
 Alpha virt. eigenvalues --    0.26533   0.27072   0.27290   0.27588   0.28489
 Alpha virt. eigenvalues --    0.28933   0.29205   0.30629   0.31013   0.31301
 Alpha virt. eigenvalues --    0.31441   0.31508   0.32428   0.32824   0.33225
 Alpha virt. eigenvalues --    0.33769   0.33875   0.34272   0.34499   0.34545
 Alpha virt. eigenvalues --    0.34650   0.35450   0.35597   0.36227   0.36522
 Alpha virt. eigenvalues --    0.37042   0.37729   0.38295   0.38714   0.39299
 Alpha virt. eigenvalues --    0.40028   0.41134   0.41296   0.41696   0.42935
 Alpha virt. eigenvalues --    0.43750   0.43788   0.44119   0.44428   0.45584
 Alpha virt. eigenvalues --    0.45651   0.46488   0.47101   0.47383   0.47634
 Alpha virt. eigenvalues --    0.49134   0.49702   0.49730   0.50236   0.51201
 Alpha virt. eigenvalues --    0.51235   0.51524   0.52503   0.52827   0.53746
 Alpha virt. eigenvalues --    0.53996   0.54572   0.54780   0.55566   0.55981
 Alpha virt. eigenvalues --    0.56577   0.56618   0.57578   0.57636   0.57644
 Alpha virt. eigenvalues --    0.57646   0.58225   0.58408   0.58827   0.59154
 Alpha virt. eigenvalues --    0.59995   0.60286   0.60492   0.60810   0.61218
 Alpha virt. eigenvalues --    0.61357   0.61664   0.62823   0.63036   0.63211
 Alpha virt. eigenvalues --    0.64289   0.64500   0.64898   0.65921   0.66398
 Alpha virt. eigenvalues --    0.66858   0.67319   0.67901   0.67984   0.69335
 Alpha virt. eigenvalues --    0.69717   0.70036   0.70133   0.70165   0.70259
 Alpha virt. eigenvalues --    0.70588   0.70646   0.71048   0.72185   0.73744
 Alpha virt. eigenvalues --    0.73750   0.74636   0.75040   0.75194   0.75928
 Alpha virt. eigenvalues --    0.77107   0.77580   0.77941   0.79225   0.79605
 Alpha virt. eigenvalues --    0.79748   0.82091   0.82704   0.83335   0.83760
 Alpha virt. eigenvalues --    0.84514   0.86112   0.86405   0.86796   0.87368
 Alpha virt. eigenvalues --    0.88659   0.88906   0.89976   0.90220   0.92093
 Alpha virt. eigenvalues --    0.92147   0.92552   0.92621   0.92846   0.93677
 Alpha virt. eigenvalues --    0.94492   0.94686   0.94909   0.95118   0.95749
 Alpha virt. eigenvalues --    0.96083   0.96472   0.97166   0.97951   0.98744
 Alpha virt. eigenvalues --    0.98798   0.99005   0.99038   0.99534   1.01097
 Alpha virt. eigenvalues --    1.01432   1.02163   1.02840   1.03240   1.03312
 Alpha virt. eigenvalues --    1.03839   1.04415   1.05122   1.05198   1.06089
 Alpha virt. eigenvalues --    1.06466   1.07475   1.08074   1.08704   1.09955
 Alpha virt. eigenvalues --    1.10206   1.11196   1.11435   1.12164   1.12258
 Alpha virt. eigenvalues --    1.12931   1.13462   1.13479   1.13982   1.14044
 Alpha virt. eigenvalues --    1.14874   1.14926   1.15405   1.16958   1.17515
 Alpha virt. eigenvalues --    1.17996   1.18924   1.21732   1.21878   1.22963
 Alpha virt. eigenvalues --    1.23176   1.23621   1.24023   1.24686   1.26552
 Alpha virt. eigenvalues --    1.28239   1.28406   1.29427   1.29589   1.30352
 Alpha virt. eigenvalues --    1.30679   1.32106   1.32444   1.34056   1.34276
 Alpha virt. eigenvalues --    1.36019   1.36870   1.37594   1.40167   1.41907
 Alpha virt. eigenvalues --    1.41911   1.42837   1.43251   1.43316   1.44212
 Alpha virt. eigenvalues --    1.45142   1.45395   1.46464   1.46481   1.47614
 Alpha virt. eigenvalues --    1.48481   1.48916   1.49365   1.50209   1.50258
 Alpha virt. eigenvalues --    1.50284   1.50443   1.50500   1.51265   1.51534
 Alpha virt. eigenvalues --    1.53092   1.53334   1.54362   1.54550   1.55525
 Alpha virt. eigenvalues --    1.55736   1.56674   1.57043   1.57547   1.58136
 Alpha virt. eigenvalues --    1.58556   1.58806   1.58956   1.59129   1.59714
 Alpha virt. eigenvalues --    1.59986   1.61316   1.61431   1.62574   1.63117
 Alpha virt. eigenvalues --    1.63581   1.63639   1.64232   1.64674   1.66122
 Alpha virt. eigenvalues --    1.66822   1.67114   1.67853   1.68042   1.68150
 Alpha virt. eigenvalues --    1.68685   1.68697   1.69128   1.69753   1.69960
 Alpha virt. eigenvalues --    1.70585   1.71136   1.71347   1.71962   1.72625
 Alpha virt. eigenvalues --    1.73797   1.74617   1.74666   1.75071   1.75674
 Alpha virt. eigenvalues --    1.77108   1.77841   1.78708   1.79122   1.79286
 Alpha virt. eigenvalues --    1.79721   1.80196   1.80408   1.81194   1.82762
 Alpha virt. eigenvalues --    1.83463   1.84107   1.85029   1.85483   1.86057
 Alpha virt. eigenvalues --    1.86457   1.87178   1.89770   1.91563   1.92368
 Alpha virt. eigenvalues --    1.92747   1.93150   1.95767   1.97609   1.98955
 Alpha virt. eigenvalues --    1.99863   2.00816   2.00817   2.02229   2.02412
 Alpha virt. eigenvalues --    2.05118   2.05529   2.06680   2.06684   2.06957
 Alpha virt. eigenvalues --    2.07881   2.09034   2.09629   2.10179   2.10187
 Alpha virt. eigenvalues --    2.13373   2.13543   2.13881   2.13884   2.14317
 Alpha virt. eigenvalues --    2.14383   2.14528   2.14549   2.16217   2.17216
 Alpha virt. eigenvalues --    2.19386   2.19473   2.19945   2.20075   2.20413
 Alpha virt. eigenvalues --    2.22154   2.22244   2.22590   2.24383   2.24899
 Alpha virt. eigenvalues --    2.26117   2.29402   2.31057   2.31186   2.33437
 Alpha virt. eigenvalues --    2.34208   2.34387   2.34705   2.34832   2.36132
 Alpha virt. eigenvalues --    2.36531   2.36977   2.38658   2.39851   2.39908
 Alpha virt. eigenvalues --    2.41764   2.41814   2.42591   2.43390   2.43828
 Alpha virt. eigenvalues --    2.45477   2.45653   2.45881   2.46468   2.47080
 Alpha virt. eigenvalues --    2.47410   2.47507   2.47728   2.48175   2.48372
 Alpha virt. eigenvalues --    2.49133   2.49188   2.49202   2.49234   2.49578
 Alpha virt. eigenvalues --    2.49784   2.50513   2.50769   2.51636   2.52130
 Alpha virt. eigenvalues --    2.53916   2.54446   2.55622   2.55824   2.56064
 Alpha virt. eigenvalues --    2.56087   2.56424   2.57183   2.57268   2.59558
 Alpha virt. eigenvalues --    2.59722   2.60245   2.60340   2.62552   2.63800
 Alpha virt. eigenvalues --    2.64595   2.64859   2.66098   2.66925   2.67055
 Alpha virt. eigenvalues --    2.67720   2.68045   2.68936   2.70521   2.70682
 Alpha virt. eigenvalues --    2.70700   2.71526   2.72095   2.72430   2.73849
 Alpha virt. eigenvalues --    2.74323   2.76357   2.76445   2.77597   2.78745
 Alpha virt. eigenvalues --    2.79443   2.79880   2.80864   2.81833   2.81854
 Alpha virt. eigenvalues --    2.82655   2.82928   2.83035   2.84797   2.85141
 Alpha virt. eigenvalues --    2.85194   2.85349   2.85375   2.86076   2.86103
 Alpha virt. eigenvalues --    2.87589   2.87746   2.88891   2.89305   2.89757
 Alpha virt. eigenvalues --    2.89791   2.90403   2.91223   2.91629   2.92626
 Alpha virt. eigenvalues --    2.93416   2.93786   2.96073   2.96082   2.96924
 Alpha virt. eigenvalues --    2.97025   2.98299   2.98687   2.99576   3.01731
 Alpha virt. eigenvalues --    3.03158   3.03672   3.06000   3.08805   3.12296
 Alpha virt. eigenvalues --    3.13439   3.13553   3.13795   3.14237   3.15729
 Alpha virt. eigenvalues --    3.19641   3.21242   3.21927   3.25427   3.25734
 Alpha virt. eigenvalues --    3.31608   3.33370   3.36015   3.41794   3.41813
 Alpha virt. eigenvalues --    3.51301   3.52569   3.53212   3.54022   3.54724
 Alpha virt. eigenvalues --    3.54973   3.56549   3.56675   3.56787   3.60116
 Alpha virt. eigenvalues --    3.60277   3.60580   3.61232   3.64145   3.65209
 Alpha virt. eigenvalues --    3.65526   3.68207   3.68232   3.70603   3.70638
 Alpha virt. eigenvalues --    3.73249   3.73639   3.73665   3.73748   3.73884
 Alpha virt. eigenvalues --    3.74940   3.76305   3.76897   3.77191   3.79063
 Alpha virt. eigenvalues --    3.81987   3.85276   3.85780   3.86034   3.86481
 Alpha virt. eigenvalues --    3.86874   3.87082   3.89018   3.89585   3.89694
 Alpha virt. eigenvalues --    4.05137   4.06026   4.08252   4.18980   4.19857
 Alpha virt. eigenvalues --    4.70056   4.70202   4.70744   4.85011   4.85087
 Alpha virt. eigenvalues --    4.85792   4.85818   4.88549   4.88816   4.89269
 Alpha virt. eigenvalues --    4.89811   4.91551   4.91850   4.93612   4.94163
 Alpha virt. eigenvalues --    4.96543   4.98802   5.00796   5.02161   5.05312
 Alpha virt. eigenvalues --    5.05581   5.12749   5.13755   5.17266   5.17355
 Alpha virt. eigenvalues --    5.21247   5.21585   5.21916   5.22260   5.24234
 Alpha virt. eigenvalues --    7.92501   7.92553   9.56673  17.28947  17.29296
 Alpha virt. eigenvalues --   17.33964  17.34028  17.36285  17.36360  23.68195
 Alpha virt. eigenvalues --   23.68408  23.68498  23.79671  23.80927  23.81066
 Alpha virt. eigenvalues --   23.82995  23.85565  23.85626  23.87638  23.88176
 Alpha virt. eigenvalues --   23.88351  23.88492  23.88835  24.15136  24.15139
 Alpha virt. eigenvalues --   24.15338  25.52609  25.67112  25.97992  35.40786
 Alpha virt. eigenvalues --   35.41570  35.44325  35.56808  35.56915  35.57957
 Alpha virt. eigenvalues --   49.81043  49.81173  49.81516  49.81753  49.92838
 Alpha virt. eigenvalues --   49.92933 188.95504 188.95535 215.50861
          Condensed to atoms (all electrons):
 Mulliken charges:
               1
     1  C    0.010381
     2  H    0.196533
     3  C    0.010382
     4  H    0.196533
     5  C    0.330361
     6  H    0.204733
     7  C   -0.086036
     8  H    0.180032
     9  H    0.177526
    10  H    0.180100
    11  C   -0.086036
    12  H    0.177526
    13  H    0.180032
    14  H    0.180100
    15  O   -0.633369
    16  O   -0.633369
    17  S    1.021864
    18  S    1.021863
    19  O   -0.617409
    20  O   -0.617467
    21  O   -0.617467
    22  O   -0.617409
    23  N   -0.333985
    24  N   -0.333985
    25  Cl  -0.938646
    26  C   -0.089810
    27  H    0.194418
    28  C   -0.089810
    29  H    0.194418
    30  N   -0.332656
    31  C    0.022136
    32  C    0.310643
    33  C    0.033329
    34  H    0.199675
    35  H    0.215709
    36  H    0.166469
    37  N   -0.332656
    38  C    0.022136
    39  C    0.310643
    40  C    0.033329
    41  H    0.199676
    42  H    0.215709
    43  H    0.166469
    44  N   -0.322697
    45  N   -0.322697
    46  C   -0.477483
    47  H    0.154128
    48  H    0.155677
    49  H    0.154447
    50  C   -0.477483
    51  H    0.155677
    52  H    0.154128
    53  H    0.154447
    54  C   -0.144670
    55  H    0.152805
    56  H    0.165839
    57  H    0.165645
    58  C   -0.144670
    59  H    0.165838
    60  H    0.152805
    61  H    0.165645
 Sum of Mulliken charges =   0.00000
 Mulliken charges with hydrogens summed into heavy atoms:
               1
     1  C    0.206915
     3  C    0.206915
     5  C    0.535094
     7  C    0.271522
    11  C    0.271522
    15  O   -0.633369
    16  O   -0.633369
    17  S    1.021864
    18  S    1.021863
    19  O   -0.617409
    20  O   -0.617467
    21  O   -0.617467
    22  O   -0.617409
    23  N   -0.333985
    24  N   -0.333985
    25  Cl  -0.938646
    26  C    0.284708
    28  C    0.284708
    30  N   -0.332656
    31  C    0.221811
    32  C    0.526352
    33  C    0.199798
    37  N   -0.332656
    38  C    0.221811
    39  C    0.526352
    40  C    0.199798
    44  N   -0.322697
    45  N   -0.322697
    46  C   -0.013230
    50  C   -0.013231
    54  C    0.339619
    58  C    0.339619
 Electronic spatial extent (au):  <R**2>=          23943.6672
 Charge=              0.0000 electrons
 Dipole moment (field-independent basis, Debye):
    X=              0.0000    Y=             24.0473    Z=              3.2128  Tot=             24.2609
 Quadrupole moment (field-independent basis, Debye-Ang):
   XX=           -104.9362   YY=           -193.3583   ZZ=           -220.8793
   XY=              0.0001   XZ=             -0.0001   YZ=              5.2640
 Traceless Quadrupole moment (field-independent basis, Debye-Ang):
   XX=             68.1217   YY=            -20.3003   ZZ=            -47.8214
   XY=              0.0001   XZ=             -0.0001   YZ=              5.2640
 Octapole moment (field-independent basis, Debye-Ang**2):
  XXX=             -0.0024  YYY=            242.4016  ZZZ=             23.6402  XYY=              0.0002
  XXY=            694.7323  XXZ=            -89.3990  XZZ=              0.0000  YZZ=             19.9117
  YYZ=            -58.8956  XYZ=              0.0003
 Hexadecapole moment (field-independent basis, Debye-Ang**3):
 XXXX=         -15511.0469 YYYY=          -8546.2403 ZZZZ=          -1013.0861 XXXY=              0.0001
 XXXZ=             -0.0051 YYYX=              0.0023 YYYZ=            123.4543 ZZZX=              0.0002
 ZZZY=             -6.2337 XXYY=          -2298.5095 XXZZ=          -3750.4840 YYZZ=          -1814.3946
 XXYZ=             78.5868 YYXZ=              0.0008 ZZXY=             -0.0002
 N-N= 3.968598741530D+03 E-N=-1.430224940660D+04  KE= 2.694517750528D+03
 No NMR shielding tensors so no spin-rotation constants.
 Leave Link  601 at Fri Nov 15 21:52:08 2024, MaxMem=  8589934592 cpu:       518.7
 (Enter /software/LNS/gaussian/g09/l9999.exe)
 1\1\GINC-CN0206-1\FOpt\RB3LYP\6-311G(d,p)\C17H29Cl1N6O6S2\HERIBERT\15-
 Nov-2024\0\\#p opt b3lyp/6-311g(d,p) scrf=(cpcm,solvent=ethanol)\\Titl
 e Card Required\\0,1\C,-0.6808687543,-1.7031746586,1.0878111452\H,-1.4
 090506856,-2.4933555316,0.961701443\C,0.6808651179,-1.7031733019,1.087
 8059294\H,1.4090478255,-2.4933523797,0.9616897835\C,-0.0000029422,0.38
 69635882,1.3732257173\H,-0.0000039338,1.4650377392,1.4456968324\C,2.44
 94839589,0.1437143049,1.2160347016\H,3.1410581472,-0.6553918955,1.4764
 124824\H,2.5310579717,0.9378924387,1.957813939\H,1.8922306377,1.285239
 0666,-0.5439341961\C,-2.4494916333,0.1437068937,1.2160725706\H,-2.5310
 565004,0.9378854477,1.9578523656\H,-3.141059123,-0.6554013193,1.476462
 0096\H,-1.8922711778,1.2852318628,-0.543907194\O,5.1303838663,-1.90739
 7147,0.406899379\O,-5.1303921253,-1.9074155164,0.4069713226\S,4.265133
 6191,-2.8388335989,-0.3807853349\S,-4.2651527811,-2.8388496667,-0.3807
 28105\O,3.2445720959,-3.5182238961,0.4691896598\O,3.6780319258,-2.1897
 563581,-1.5866619516\O,-3.6780723818,-2.1897703602,-1.5866139598\O,-3.
 2445752755,-3.5182374436,0.46922962\N,1.0820653677,-0.3865218889,1.268
 2974899\N,-1.0820705482,-0.3865251692,1.2683141041\Cl,-0.0000217569,3.
 4667907349,-0.210841218\C,2.7350772226,0.6866150398,-0.1975117914\H,2.
 9209887872,-0.1322719909,-0.8938930528\C,-2.7351097298,0.686605138,-0.
 1974699583\H,-2.9210299242,-0.1322833801,-0.893847182\N,3.9071468889,1
 .5675236795,-0.1920192733\C,5.2307578707,1.1738614875,-0.0943335214\C,
 3.8527362618,2.9018478702,-0.2674703546\C,5.9752898168,2.3120408736,-0
 .1168744627\H,5.4895237971,0.1269560825,-0.006501221\H,2.9430069787,3.
 4786150061,-0.3452106818\H,7.040094575,2.4576549006,-0.0677425579\N,-3
 .9071828931,1.5675089464,-0.1919588239\C,-5.2307903158,1.1738407387,-0
 .0942487307\C,-3.8527798702,2.9018332581,-0.2674129556\C,-5.9753278897
 ,2.312016702,-0.116775846\H,-5.489549104,0.1269340657,-0.006409764\H,-
 2.9430551238,3.4786050534,-0.345171098\H,-7.0401323611,2.457625936,-0.
 0676233974\N,5.0979185644,3.3775407888,-0.2265175011\N,-5.0979639974,3
 .3775200628,-0.2264441011\C,-5.3609942808,-4.1370367108,-0.9867109485\
 H,-6.1254509946,-3.6774839828,-1.6114735095\H,-4.771985461,-4.84576539
 76,-1.5669582348\H,-5.8174635458,-4.632338917,-0.1311062541\C,5.360968
 3772,-4.1370180749,-0.9867857921\H,4.771951739,-4.845748537,-1.5670229
 681\H,6.1254135583,-3.6774636754,-1.6115612396\H,5.8174530854,-4.63231
 8686,-0.1311884148\C,5.4740340011,4.793885732,-0.2888499629\H,4.571183
 5944,5.3914929847,-0.3864981422\H,5.9987357701,5.0685889464,0.62496926
 25\H,6.1176840238,4.9584801475,-1.1515181075\C,-5.4740875219,4.7938626
 781,-0.2887798058\H,-5.9987802281,5.0685673751,0.6250441388\H,-4.57124
 1286,5.3914741194,-0.3864409167\H,-6.1177482997,4.9584497947,-1.151441
 3654\\Version=ES64L-G09RevD.01\State=1-A\HF=-2702.1524261\RMSD=6.695e-
 09\RMSF=3.994e-06\Dipole=-0.0000177,9.4383904,1.4224911\Quadrupole=50.
 6468232,-15.2298067,-35.4170165,0.0001904,-0.0007181,4.254574\PG=C01 [
 X(C17H29Cl1N6O6S2)]\\@


 NEVER LOSE YOUR IGNORANCE, IT CAN'T BE REPLACED.
   -- ANDY CAPP
 Job cpu time:      10 days 16 hours  2 minutes 45.3 seconds.
 File lengths (MBytes):  RWF=    724 Int=      0 D2E=      0 Chk=     47 Scr=      2
 Normal termination of Gaussian 09 at Fri Nov 15 21:52:10 2024.
